<preamble>

<basis_specs>
===============================================================================
Se                   Z=  34    Mass=  78.960        Charge= 0.17977+309
Lmxo=2 Lmxkb= 2    BasisType=split      Semic=T
L=0  Nsemic=0  Cnfigmx=4
          i=1  nzeta=2  polorb=0  (4s)
            splnorm:   0.15000    
               vcte:    40.000    
               rinn:    4.2878    
               qcoe:    0.0000    
               qyuk:    0.0000    
               qwid:   0.10000E-01
                rcs:    4.7050      3.6642    
            lambdas:    1.0000      1.0000    
L=1  Nsemic=0  Cnfigmx=4
          i=1  nzeta=2  polorb=1  (4p)  (to be polarized perturbatively)
            splnorm:   0.15000    
               vcte:    40.000    
               rinn:    5.5056    
               qcoe:    0.0000    
               qyuk:    0.0000    
               qwid:   0.10000E-01
                rcs:    6.0413      4.2572    
            lambdas:    1.0000      1.0000    
L=2  Nsemic=1  Cnfigmx=4
          i=1  nzeta=1  polorb=0  (3d)  (semicore shell)
            splnorm:   0.15000    
               vcte:    40.000    
               rinn:    2.2106    
               qcoe:    0.0000    
               qyuk:    0.0000    
               qwid:   0.10000E-01
                rcs:    2.4562    
            lambdas:    1.0000    
          i=2  nzeta=0  polorb=0  (4d)  (perturbative polarization orbital) (from 4p)
-------------------------------------------------------------------------------
L=0  Nkbl=1  erefs: 0.17977+309
L=1  Nkbl=1  erefs: 0.17977+309
L=2  Nkbl=2  erefs: 0.17977+309 0.17977+309
===============================================================================
</basis_specs>

<pseudopotential_header>
 Se pb rel pcec
 ONCVPSP-3.2018-04-18Hamann's oncvpsp                        
 4s 2.00r r= 1.82/4p 4.00r r= 1.50/3d10.00r r= 1.91/                    3d:4s:4p:
</pseudopotential_header>
</preamble>
Se                            # Symbol
Se                            # Label
   34                         # Atomic number
     16.0000000000                             # Valence charge
     78.9600000000        # Mass 
     255.014560762        # Self energy 
   2   6                      # Lmax for basis, no. of nl orbitals 
   2  10 T                    # Lmax for projectors, no. of nl KB projectors, LJ projs?
# PAOs:__________________________
  0  4  1  0  2.000000   #orbital l, n, z, is_polarized, population
 500    0.9428840812637628E-02     4.704991565506177     # npts, delta, cutoff
     0.000000000000000        0.5766051288824806E-01
    0.9428840812637628E-02    0.5775782417305998E-01
    0.1885768162527526E-01    0.5805011457528073E-01
    0.2828652243791288E-01    0.5853706134201679E-01
    0.3771536325055051E-01    0.5921835844977082E-01
    0.4714420406318814E-01    0.6009357716982663E-01
    0.5657304487582577E-01    0.6116216577252617E-01
    0.6600188568846339E-01    0.6242344915870263E-01
    0.7543072650110103E-01    0.6387662842327677E-01
    0.8485956731373866E-01    0.6552078035889260E-01
    0.9428840812637629E-01    0.6735485690892158E-01
    0.1037172489390139        0.6937768458041399E-01
    0.1131460897516515        0.7158796382872050E-01
    0.1225749305642892        0.7398426842655771E-01
    0.1320037713769268        0.7656504483123083E-01
    0.1414326121895644        0.7932861156456583E-01
    0.1508614530022021        0.8227315862082639E-01
    0.1602902938148397        0.8539674691849237E-01
    0.1697191346274773        0.8869730781225563E-01
    0.1791479754401149        0.9217264268193769E-01
    0.1885768162527526        0.9582042261525507E-01
    0.1980056570653902        0.9963818820143489E-01
    0.2074344978780278        0.1036233494526363    
    0.2168633386906655        0.1077731858699382    
    0.2262921795033031        0.1120848466703292    
    0.2357210203159407        0.1165553511906755    
    0.2451498611285783        0.1211815894840496    
    0.2545787019412160        0.1259603231230728    
    0.2640075427538536        0.1308881862240896    
    0.2734363835664912        0.1359616867050157    
    0.2828652243791289        0.1411772077886216    
    0.2922940651917665        0.1465310097618473    
    0.3017229060044041        0.1520192320004318    
    0.3111517468170417        0.1576378952668029    
    0.3205805876296793        0.1633829042876976    
    0.3300094284423170        0.1692500506164762    
    0.3394382692549546        0.1752350157835101    
    0.3488671100675922        0.1813333747364016    
    0.3582959508802299        0.1875405995701138    
    0.3677247916928675        0.1938520635454290    
    0.3771536325055052        0.2002630453924105    
    0.3865824733181428        0.2067687338938764    
    0.3960113141307804        0.2133642327421701    
    0.4054401549434180        0.2200445656608500    
    0.4148689957560556        0.2268046817812908    
    0.4242978365686932        0.2336394612625643    
    0.4337266773813309        0.2405437211414596    
    0.4431555181939685        0.2475122213980125    
    0.4525843590066062        0.2545396712205215    
    0.4620131998192438        0.2616207354527179    
    0.4714420406318814        0.2687500412045494    
    0.4808708814445191        0.2759221846069222    
    0.4902997222571567        0.2831317376897516    
    0.4997285630697943        0.2903732553617931    
    0.5091574038824319        0.2976412824699813    
    0.5185862446950695        0.3049303609153577    
    0.5280150855077071        0.3122350368022225    
    0.5374439263203448        0.3195498675967512    
    0.5468727671329824        0.3268694292711342    
    0.5563016079456201        0.3341883234092421    
    0.5657304487582577        0.3415011842498535    
    0.5751592895708953        0.3488026856437567    
    0.5845881303835330        0.3560875479013371    
    0.5940169711961706        0.3633505445078332    
    0.6034458120088082        0.3705865086839823    
    0.6128746528214458        0.3777903397706464    
    0.6223034936340834        0.3849570094168079    
    0.6317323344467211        0.3920815675514090    
    0.6411611752593587        0.3991591481205595    
    0.6505900160719963        0.4061849745729418    
    0.6600188568846340        0.4131543650774951    
    0.6694476976972716        0.4200627374589477    
    0.6788765385099093        0.4269056138381756    
    0.6883053793225469        0.4336786249660237    
    0.6977342201351845        0.4403775142407376    
    0.7071630609478221        0.4469981414009380    
    0.7165919017604597        0.4535364858876667    
    0.7260207425730973        0.4599886498708238    
    0.7354495833857350        0.4663508609370576    
    0.7448784241983726        0.4726194744378571    
    0.7543072650110103        0.4787909754984268    
    0.7637361058236479        0.4848619806895155    
    0.7731649466362855        0.4908292393661634    
    0.7825937874489232        0.4966896346789014    
    0.7920226282615608        0.5024401842645265    
    0.8014514690741984        0.5080780406251361    
    0.8108803098868360        0.5136004912054881    
    0.8203091506994736        0.5190049581801554    
    0.8297379915121113        0.5242889979632154    
    0.8391668323247489        0.5294503004543478    
    0.8485956731373865        0.5344866880363163    
    0.8580245139500242        0.5393961143397388    
    0.8674533547626618        0.5441766627918651    
    0.8768821955752995        0.5488265449668420    
    0.8863110363879371        0.5533440987554505    
    0.8957398772005747        0.5577277863727951    
    0.9051687180132123        0.5619761922227592    
    0.9145975588258499        0.5660880206381609    
    0.9240263996384875        0.5700620935156283    
    0.9334552404511252        0.5738973478641660    
    0.9428840812637628        0.5775928332860889    
    0.9523129220764004        0.5811477094087316    
    0.9617417628890381        0.5845612432848581    
    0.9711706037016757        0.5878328067790682    
    0.9805994445143134        0.5909618739568402    
    0.9900282853269510        0.5939480184920746    
    0.9994571261395886        0.5967909111080089    
     1.008885966952226        0.5994903170654459    
     1.018314807764864        0.6020460937110989    
     1.027743648577502        0.6044581880977736    
     1.037172489390139        0.6067266346867645    
     1.046601330202777        0.6088515531416711    
     1.056030171015414        0.6108331462214587    
     1.065459011828052        0.6126716977791659    
     1.074887852640690        0.6143675708713515    
     1.084316693453327        0.6159212059819069    
     1.093745534265965        0.6173331193625002    
     1.103174375078602        0.6186039014904356    
     1.112603215891240        0.6197342156433437    
     1.122032056703878        0.6207247965887903    
     1.131460897516515        0.6215764493854798    
     1.140889738329153        0.6222900482914869    
     1.150318579141791        0.6228665357737680    
     1.159747419954428        0.6233069216119895    
     1.169176260767066        0.6236122820885152    
     1.178605101579703        0.6237837592555867    
     1.188033942392341        0.6238225602697298    
     1.197462783204979        0.6237299567824431    
     1.206891624017616        0.6235072843757882    
     1.216320464830254        0.6231559420306603    
     1.225749305642892        0.6226773916149777    
     1.235178146455529        0.6220731573790259    
     1.244606987268167        0.6213448254442877    
     1.254035828080805        0.6204940432725914    
     1.263464668893442        0.6195225191019873    
     1.272893509706080        0.6184320213357792    
     1.282322350518717        0.6172243778719089    
     1.291751191331355        0.6159014753593725    
     1.301180032143993        0.6144652583696335    
     1.310608872956630        0.6129177284931364    
     1.320037713769268        0.6112609431623162    
     1.329466554581906        0.6094970147864101    
     1.338895395394543        0.6076281097965508    
     1.348324236207181        0.6056564446434903    
     1.357753077019819        0.6035842858912268    
     1.367181917832456        0.6014139635777190    
     1.376610758645094        0.5991478461794174    
     1.386039599457731        0.5967883312219568    
     1.395468440270369        0.5943378648713843    
     1.404897281083006        0.5917989430648719    
     1.414326121895644        0.5891740968639143    
     1.423754962708282        0.5864658905580439    
     1.433183803520919        0.5836769219988521    
     1.442612644333557        0.5808098184002052    
     1.452041485146195        0.5778672329345391    
     1.461470325958832        0.5748518416655850    
     1.470899166771470        0.5717663400132743    
     1.480328007584108        0.5686134392084411    
     1.489756848396745        0.5653958626625752    
     1.499185689209383        0.5621163421473765    
     1.508614530022021        0.5587776139361988    
     1.518043370834658        0.5553824147447116    
     1.527472211647296        0.5519334776163655    
     1.536901052459933        0.5484335279791829    
     1.546329893272571        0.5448852795237316    
     1.555758734085209        0.5412914300581869    
     1.565187574897846        0.5376546571901882    
     1.574616415710484        0.5339776142613449    
     1.584045256523122        0.5302629263722731    
     1.593474097335759        0.5265131862989647    
     1.602902938148397        0.5227309504848929    
     1.612331778961035        0.5189187351687763    
     1.621760619773672        0.5150790125412763    
     1.631189460586310        0.5112142070818410    
     1.640618301398947        0.5073266921206433    
     1.650047142211585        0.5034187864724747    
     1.659475983024223        0.4994927511845929    
     1.668904823836860        0.4955507865374270    
     1.678333664649498        0.4915950292677650    
     1.687762505462135        0.4876275499804836    
     1.697191346274773        0.4836503507785070    
     1.706620187087411        0.4796653631438736    
     1.716049027900048        0.4756744460630009    
     1.725477868712686        0.4716793844161130    
     1.734906709525324        0.4676818876204751    
     1.744335550337961        0.4636835885898293    
     1.753764391150599        0.4596860427621959    
     1.763193231963236        0.4556907278684439    
     1.772622072775874        0.4516990436077410    
     1.782050913588512        0.4477123108744849    
     1.791479754401149        0.4437317732448033    
     1.800908595213787        0.4397586009009805    
     1.810337436026425        0.4357938814457751    
     1.819766276839062        0.4318386248359224    
     1.829195117651700        0.4278937791517646    
     1.838623958464338        0.4239602368479029    
     1.848052799276975        0.4200388413893021    
     1.857481640089613        0.4161304014479223    
     1.866910480902250        0.4122356984484700    
     1.876339321714888        0.4083554745669590    
     1.885768162527526        0.4044904397141106    
     1.895197003340163        0.4006412693820762    
     1.904625844152801        0.3968086097313578    
     1.914054684965439        0.3929930759170029    
     1.923483525778076        0.3891952537480089    
     1.932912366590714        0.3854157005050332    
     1.942341207403351        0.3816549457943416    
     1.951770048215989        0.3779134925951558    
     1.961198889028627        0.3741918181035908    
     1.970627729841264        0.3704903743999785    
     1.980056570653902        0.3668095893303801    
     1.989485411466539        0.3631498672210887    
     1.998914252279177        0.3595115897707081    
     2.008343093091815        0.3558951167552983    
     2.017771933904453        0.3523007867279880    
     2.027200774717090        0.3487289177278936    
     2.036629615529728        0.3451798079718846    
     2.046058456342365        0.3416537364813794    
     2.055487297155003        0.3381509637451764    
     2.064916137967641        0.3346717323174619    
     2.074344978780278        0.3312162674885893    
     2.083773819592916        0.3277847778442352    
     2.093202660405554        0.3243774558630440    
     2.102631501218191        0.3209944784340958    
     2.112060342030829        0.3176360074100592    
     2.121489182843467        0.3143021901516035    
     2.130918023656104        0.3109931600287461    
     2.140346864468742        0.3077090369253282    
     2.149775705281379        0.3044499277122041    
     2.159204546094017        0.3012159267204678    
     2.168633386906655        0.2980071161937262    
     2.178062227719292        0.2948235667324591    
     2.187491068531930        0.2916653377209529    
     2.196919909344567        0.2885324777438093    
     2.206348750157205        0.2854250249887778    
     2.215777590969843        0.2823430076386245    
     2.225206431782480        0.2792864442507804    
     2.234635272595118        0.2762553441258782    
     2.244064113407755        0.2732497076649990    
     2.253492954220393        0.2702695267162135    
     2.262921795033031        0.2673147849106117    
     2.272350635845668        0.2643854579880970    
     2.281779476658306        0.2614815141132154    
     2.291208317470943        0.2586029141813392    
     2.300637158283581        0.2557496121153822    
     2.310065999096219        0.2529215551533661    
     2.319494839908856        0.2501186841270608    
     2.328923680721494        0.2473409337319548    
     2.338352521534132        0.2445882327887602    
     2.347781362346769        0.2418605044967745    
     2.357210203159407        0.2391576666791931    
     2.366639043972045        0.2364796320206921    
     2.376067884784682        0.2338263082974577    
     2.385496725597320        0.2311975985998911    
     2.394925566409957        0.2285934015481330    
     2.404354407222595        0.2260136115007730    
     2.413783248035233        0.2234581187566912    
     2.423212088847870        0.2209268097504911    
     2.432640929660508        0.2184195672413704    
     2.442069770473146        0.2159362704960671    
     2.451498611285783        0.2134767954653656    
     2.460927452098421        0.2110410149555484    
     2.470356292911059        0.2086287987934745    
     2.479785133723696        0.2062400139863317    
     2.489213974536334        0.2038745248765487    
     2.498642815348971        0.2015321932901429    
     2.508071656161609        0.1992128786815568    
     2.517500496974247        0.1969164382728337    
     2.526929337786884        0.1946427271884336    
     2.536358178599522        0.1923915985862904    
     2.545787019412160        0.1901629037785499    
     2.555215860224797        0.1879564923605533    
     2.564644701037435        0.1857722123234443    
     2.574073541850073        0.1836099101641808    
     2.583502382662710        0.1814694310107521    
     2.592931223475348        0.1793506186954338    
     2.602360064287985        0.1772533158864567    
     2.611788905100623        0.1751773641363946    
     2.621217745913261        0.1731226040548163    
     2.630646586725898        0.1710888753554854    
     2.640075427538536        0.1690760169405472    
     2.649504268351174        0.1670838670415951    
     2.658933109163811        0.1651122631848781    
     2.668361949976449        0.1631610423597795    
     2.677790790789087        0.1612300409982614    
     2.687219631601724        0.1593190951839438    
     2.696648472414362        0.1574280406464055    
     2.706077313226999        0.1555567128358780    
     2.715506154039637        0.1537049470353759    
     2.724934994852275        0.1518725783308646    
     2.734363835664912        0.1500594417298454    
     2.743792676477550        0.1482653721903987    
     2.753221517290187        0.1464902046983792    
     2.762650358102825        0.1447337743079412    
     2.772079198915463        0.1429959162005292    
     2.781508039728100        0.1412764657117438    
     2.790936880540738        0.1395752584182318    
     2.800365721353375        0.1378921301586432    
     2.809794562166013        0.1362269170749350    
     2.819223402978651        0.1345794556849880    
     2.828652243791288        0.1329495828604644    
     2.838081084603926        0.1313371359107345    
     2.847509925416564        0.1297419525755908    
     2.856938766229201        0.1281638711136397    
     2.866367607041839        0.1266027303055238    
     2.875796447854476        0.1250583694875886    
     2.885225288667114        0.1235306286017455    
     2.894654129479752        0.1220193481912495    
     2.904082970292389        0.1205243694468187    
     2.913511811105027        0.1190455342299114    
     2.922940651917665        0.1175826850887516    
     2.932369492730302        0.1161356652960236    
     2.941798333542940        0.1147043188624046    
     2.951227174355578        0.1132884905591010    
     2.960656015168215        0.1118880259405143    
     2.970084855980853        0.1105027713586252    
     2.979513696793490        0.1091325739837424    
     2.988942537606128        0.1077772818209056    
     2.998371378418766        0.1064367437251990    
     3.007800219231403        0.1051108094179464    
     3.017229060044041        0.1037993295001645    
     3.026657900856679        0.1025021554660361    
     3.036086741669316        0.1012191397154843    
     3.045515582481954        0.9995013556573740E-01
     3.054944423294592        0.9869499726234668E-01
     3.064373264107229        0.9745357998936470E-01
     3.073802104919867        0.9622573987877876E-01
     3.083230945732504        0.9501133401936727E-01
     3.092659786545142        0.9381022046477532E-01
     3.102088627357780        0.9262225824101145E-01
     3.111517468170417        0.9144730735327994E-01
     3.120946308983055        0.9028522879229707E-01
     3.130375149795693        0.8913588453995233E-01
     3.139803990608330        0.8799913757446168E-01
     3.149232831420968        0.8687485187494397E-01
     3.158661672233606        0.8576289242556509E-01
     3.168090513046243        0.8466312521910661E-01
     3.177519353858881        0.8357541726010377E-01
     3.186948194671518        0.8249963656747995E-01
     3.196377035484156        0.8143565217682294E-01
     3.205805876296794        0.8038333414215562E-01
     3.215234717109431        0.7934255353734353E-01
     3.224663557922069        0.7831318245706367E-01
     3.234092398734707        0.7729509401747810E-01
     3.243521239547344        0.7628816235646546E-01
     3.252950080359982        0.7529226263354002E-01
     3.262378921172620        0.7430727102943456E-01
     3.271807761985257        0.7333306474532816E-01
     3.281236602797895        0.7236952200184024E-01
     3.290665443610532        0.7141652203764896E-01
     3.300094284423170        0.7047394510787000E-01
     3.309523125235807        0.6954167248211730E-01
     3.318951966048445        0.6861958644238166E-01
     3.328380806861083        0.6770757028057751E-01
     3.337809647673720        0.6680550829589367E-01
     3.347238488486358        0.6591328579186820E-01
     3.356667329298995        0.6503078907331948E-01
     3.366096170111633        0.6415790544299098E-01
     3.375525010924271        0.6329452319802698E-01
     3.384953851736908        0.6244053162625399E-01
     3.394382692549546        0.6159582100224253E-01
     3.403811533362184        0.6076028258326618E-01
     3.413240374174821        0.5993380860501502E-01
     3.422669214987459        0.5911629227719032E-01
     3.432098055800097        0.5830762777890221E-01
     3.441526896612734        0.5750771025399416E-01
     3.450955737425372        0.5671643580615500E-01
     3.460384578238009        0.5593370149393039E-01
     3.469813419050647        0.5515940532560680E-01
     3.479242259863285        0.5439344625394179E-01
     3.488671100675922        0.5363572417084921E-01
     3.498099941488560        0.5288613990190431E-01
     3.507528782301198        0.5214459520078550E-01
     3.516957623113835        0.5141099274357842E-01
     3.526386463926473        0.5068523612305351E-01
     3.535815304739111        0.4996722984279243E-01
     3.545244145551748        0.4925687931125987E-01
     3.554672986364386        0.4855409083579768E-01
     3.564101827177023        0.4785877161651390E-01
     3.573530667989661        0.4717082974016744E-01
     3.582959508802299        0.4649017417392361E-01
     3.592388349614936        0.4581671475907832E-01
     3.601817190427574        0.4515036220472512E-01
     3.611246031240212        0.4449102808133995E-01
     3.620674872052849        0.4383862481437765E-01
     3.630103712865487        0.4319306567776049E-01
     3.639532553678125        0.4255426478735389E-01
     3.648961394490762        0.4192213709440192E-01
     3.658390235303400        0.4129659837890023E-01
     3.667819076116037        0.4067756524299303E-01
     3.677247916928675        0.4006495510428164E-01
     3.686676757741313        0.3945868618913435E-01
     3.696105598553950        0.3885867752597068E-01
     3.705534439366588        0.3826484893850030E-01
     3.714963280179226        0.3767712103899434E-01
     3.724392120991863        0.3709541522148680E-01
     3.733820961804501        0.3651965365499268E-01
     3.743249802617139        0.3594975927668423E-01
     3.752678643429776        0.3538565578510802E-01
     3.762107484242414        0.3482726763334582E-01
     3.771536325055051        0.3427452002219260E-01
     3.780965165867689        0.3372733889333113E-01
     3.790394006680327        0.3318565092248223E-01
     3.799822847492964        0.3264938351260169E-01
     3.809251688305602        0.3211846478703469E-01
     3.818680529118240        0.3159282358269451E-01
     3.828109369930877        0.3107238944324736E-01
     3.837538210743515        0.3055709261228221E-01
     3.846967051556152        0.3004686402653318E-01
     3.856395892368790        0.2954163530907014E-01
     3.865824733181427        0.2904133876251972E-01
     3.875253573994065        0.2854590736229590E-01
     3.884682414806703        0.2805527474984822E-01
     3.894111255619340        0.2756937522590618E-01
     3.903540096431978        0.2708814374378129E-01
     3.912968937244615        0.2661151590264476E-01
     3.922397778057253        0.2613942794084465E-01
     3.931826618869891        0.2567181672924252E-01
     3.941255459682528        0.2520861976455246E-01
     3.950684300495166        0.2474977516274081E-01
     3.960113141307804        0.2429522165240963E-01
     3.969541982120441        0.2384489856822257E-01
     3.978970822933079        0.2339874584435550E-01
     3.988399663745717        0.2295670400795381E-01
     3.997828504558354        0.2251871417265431E-01
     4.007257345370992        0.2208471803209556E-01
     4.016686186183629        0.2165465785347436E-01
     4.026115026996267        0.2122847647113004E-01
     4.035543867808905        0.2080611728014040E-01
     4.044972708621542        0.2038752422998251E-01
     4.054401549434180        0.1997264181818862E-01
     4.063830390246817        0.1956141508404948E-01
     4.073259231059455        0.1915378960234492E-01
     4.082688071872093        0.1874971147710978E-01
     4.092116912684730        0.1834912733541468E-01
     4.101545753497368        0.1795198432121453E-01
     4.110974594310006        0.1755823008919422E-01
     4.120403435122643        0.1716781279866458E-01
     4.129832275935281        0.1678068145865647E-01
     4.139261116747919        0.1639678442509748E-01
     4.148689957560556        0.1601607169053442E-01
     4.158118798373194        0.1563849341666827E-01
     4.167547639185831        0.1526400025528061E-01
     4.176976479998469        0.1489254333105877E-01
     4.186405320811107        0.1452407881842597E-01
     4.195834161623744        0.1415854757089201E-01
     4.205263002436382        0.1379590760162095E-01
     4.214691843249020        0.1343611246330195E-01
     4.224120684061657        0.1307911624307914E-01
     4.233549524874295        0.1272487721179349E-01
     4.242978365686933        0.1237334150458601E-01
     4.252407206499570        0.1202446752028890E-01
     4.261836047312208        0.1167821023335571E-01
     4.271264888124845        0.1133452465453873E-01
     4.280693728937483        0.1099336582995118E-01
     4.290122569750121        0.1065459503973252E-01
     4.299551410562758        0.1031838698823628E-01
     4.308980251375396        0.9984594444773343E-02
     4.318409092188034        0.9653164856090716E-02
     4.327837933000671        0.9324046300082069E-02
     4.337266773813309        0.8997192375768697E-02
     4.346695614625947        0.8672738478842886E-02
     4.356124455438584        0.8350256863106718E-02
     4.365553296251222        0.8029965773588135E-02
     4.374982137063859        0.7711934771433972E-02
     4.384410977876497        0.7396281160032135E-02
     4.393839818689135        0.7083104194227855E-02
     4.403268659501772        0.6772769023230788E-02
     4.412697500314410        0.6465478361440661E-02
     4.422126341127048        0.6161537046864195E-02
     4.431555181939685        0.5861286249310337E-02
     4.440984022752323        0.5565097565538465E-02
     4.450412863564961        0.5273249750828016E-02
     4.459841704377598        0.4986409839175884E-02
     4.469270545190236        0.4704882338924105E-02
     4.478699386002873        0.4429073140349810E-02
     4.488128226815511        0.4159373018784205E-02
     4.497557067628149        0.3896150942451124E-02
     4.506985908440786        0.3639832432954424E-02
     4.516414749253424        0.3390540443844330E-02
     4.525843590066062        0.3148632059266074E-02
     4.535272430878699        0.2914349523323027E-02
     4.544701271691337        0.2687897664250588E-02
     4.554130112503975        0.2469441229639758E-02
     4.563558953316612        0.2259058149597561E-02
     4.572987794129250        0.2056921445958000E-02
     4.582416634941887        0.1863020392174500E-02
     4.591845475754525        0.1677332278576561E-02
     4.601274316567163        0.1499779522672395E-02
     4.610703157379800        0.1330227231423757E-02
     4.620131998192438        0.1168423957531176E-02
     4.629560839005076        0.1014232117303048E-02
     4.638989679817713        0.8672873829505574E-03
     4.648418520630351        0.7272052049705541E-03
     4.657847361442989        0.5935301736567316E-03
     4.667276202255626        0.4657331408207325E-03
     4.676705043068264        0.3425049496400090E-03
     4.686133883880901        0.2245105759248386E-03
     4.695562724693539        0.1105799334802676E-03
     4.704991565506177         0.000000000000000    
  0  4  2  0  0.000000   #orbital l, n, z, is_polarized, population
 500    0.7343156290876977E-02     3.664234989147611     # npts, delta, cutoff
     0.000000000000000       -0.1287016948230155    
    0.7343156290876977E-02   -0.1286156055059567    
    0.1468631258175395E-01   -0.1283567647270269    
    0.2202946887263093E-01   -0.1279254721287446    
    0.2937262516350791E-01   -0.1273218908413906    
    0.3671578145438489E-01   -0.1265462493375130    
    0.4405893774526186E-01   -0.1255988415325550    
    0.5140209403613884E-01   -0.1244800269076519    
    0.5874525032701582E-01   -0.1231902306564104    
    0.6608840661789279E-01   -0.1217299438544077    
    0.7343156290876977E-01   -0.1200997236495969    
    0.8077471919964675E-01   -0.1183001934714895    
    0.8811787549052372E-01   -0.1163320432567246    
    0.9546103178140070E-01   -0.1141960296883837    
    0.1028041880722777       -0.1118929764461903    