TACC:  Starting up job 4791509 
TACC:  Starting parallel tasks... 
Siesta Version  : 5.0.0-alpha-45-gffa4e7d86
Architecture    : build-mk-scheme
Compiler version: ifort (IFORT) 19.1.1.217 20200306
Compiler flags  : mpiifort -g -traceback -O2 -prec-div -prec-sqrt -fp-model source -xCORE-AVX512 -qopenmp
PP flags        : -DF2003  -DCDF  -DNCDF -DNCDF_4 -DMPI -DMPI_TIMING
Libraries       : libncdf.a libfdict.a  -L/opt/apps/intel19/impi19_0/parallel-netcdf/4.9.0/x86_64/lib -lnetcdf -lnetcdff -L/opt/intel/compilers_and_libraries_2020.1.217/linux/mkl/lib/intel64 -lmkl_scalapack_lp64 -lmkl_intel_lp64 -lmkl_intel_thread -lmkl_core -lmkl_blacs_intelmpi_lp64 -liomp5 -lpthread -lm -ldl -L/opt/intel/compilers_and_libraries_2020.1.217/linux/mkl/lib/intel64 -lmkl_scalapack_lp64 -lmkl_intel_lp64 -lmkl_intel_thread -lmkl_core -lmkl_blacs_intelmpi_lp64 -liomp5 -lpthread -lm -ldl
Parallelisations: MPI, OpenMP
* OpenMP version: 201611
NetCDF support
NetCDF-4 support

Runtime information:
* Directory : /scratch1/08702/wkim94/WSe2-mono/Siesta2bgw_noncolinear/siesta
* Running on 32 nodes in parallel.
* Running 1 OpenMP threads.
* Running 32 processes.
* OpenMP NOT bound (please bind threads!)
* OpenMP runtime schedule STATIC, chunks 0
** OpenMP (trying to FORCE nesting)
* OpenMP allows 2147483647 nested levels.
>> Start of run:   3-SEP-2022  17:49:25

                           *********************** 
                           *  WELCOME TO SIESTA  * 
                           *********************** 

reinit: Reading from standard input
reinit: Dumping input in INPUT_TMP.50729
************************** Dump of input data file ****************************
#SIESTA-MASTER#
SystemName   WSe2
SystemLabel  WSe2
NumberOfAtoms        3
NumberOfSpecies      2
%block ChemicalSpeciesLabel
   1  74 W
   2  34 Se
%endblock ChemicalSpeciesLabel
LatticeConstant    3.290  Ang                    # Lattice vector scaling
%block LatticeVectors
1.00       0.00          0.00
0.50       0.8660254038  0.00
0.00       0.000000000   6.6869300912
%endblock LatticeVectors
AtomicCoordinatesFormat  Fractional
%block AtomicCoordinatesAndAtomicSpecies
     0.0           0.0           0.267705628  1
     0.6666666667  0.6666666667  0.1929647189 2
     0.6666666667  0.6666666667  0.3424465371 2
%endblock AtomicCoordinatesAndAtomicSpecies
# Basis
PAO.BasisSize DZP
PAO.EnergyShift  100 meV   ! Extension of AOs (smaller => more extended)
PAO.SplitNorm      0.15
PAO.SplitNormH      0.50
PAO.SoftDefault      T
xc.functional         GGA          # Exchange-correlation functional
xc.authors            PBE          # Exchange-correlation version
SolutionMethod  diagon
%block kgrid_Monkhorst_Pack
   12   0    0   0.0
   0    12   0   0.0
   0    0    1   0.0
%endblock kgrid_Monkhorst_Pack
 ################ SCF options #############
SolutionMethod  diagon
ElectronicTemperature   0.0010 eV
MaxSCFIterations   300
DM.NumberPulay   3
DM.MixingWeight     0.300
MeshCutoff        1000.0000 Ry
DM.Tolerance        1.E-6
SCF.H.Converge  F
UseSaveData     F
DM.UseSaveDM    T
SpinOrbit       T
Diag.ParallelOverK T
WriteDenchar    T
# ---- SPIN TEXTURE
#
# We use a 'BandPoints' block to generate the states at chosen k-points
# These keywords are necessary to generate the HSX and WFSX files
#
SaveHS T
WFS.Write.For.Bands T
#
# These keywords could be used to limit the number of bands stored in the WFSX file
#
WFS.Band.Min 37
WFS.Band.Max 56
#
BandLinesScale ReciprocalLatticeVectors          # Band line scaling
%block BandLines
 1  0.000          0.000         0.000  G
30  0.3333333333   0.6666666667  0.000  K
30  0.500          0.500         0.000  M
30  0.000          0.000         0.000  G
%endblock BandLines
************************** End of input data file *****************************

reinit: -----------------------------------------------------------------------
reinit: System Name: WSe2
reinit: -----------------------------------------------------------------------
reinit: System Label: WSe2
reinit: -----------------------------------------------------------------------

initatom: Reading input for the pseudopotentials and atomic orbitals ----------
Species number:   1 Atomic number:   74 Label: W
Species number:   2 Atomic number:   34 Label: Se
 

 ---- Processing specs for species: W
Ground state valence configuration:   6s02  5d04
PSML file version: 1.1
Using libxc ids:  101 130
GGA--PBE XC_GGA_X_PBE--XC_GGA_C_PBE pb
 Using ATOM defaults for log grid...
PSML uuid: aa7a7c90-4224-11e8-4f8b-f188ff7dd6fa

 ---- Processing specs for species: Se
Ground state valence configuration:   4s02  4p04
PSML file version: 1.1
Using libxc ids:  101 130
GGA--PBE XC_GGA_X_PBE--XC_GGA_C_PBE pb
 Using ATOM defaults for log grid...
PSML uuid: 1006d1e0-4305-11e8-770d-7c1cfffca646
Semicore shell(s) with  8 electrons included in the valence for W
Semicore shell(s) with 10 electrons included in the valence for Se

---- Pseudopotential check for W 

Pseudopotential generated from a fully relativistic atomic calculation
There are spin-orbit semi-local pseudopotentials available

Pseudized shells:
5s( 2.00) rc: 1.61
5p( 6.00) rc: 1.61
5d( 4.00) rc: 1.61
5f( 0.00) rc: 2.02
Valence configuration for ps generation: 5s:5p:5d:6s: Total charge:  14.000000
Semicore shell(s): 5s 5p

---- Pseudopotential check for Se

Pseudopotential generated from a fully relativistic atomic calculation
There are spin-orbit semi-local pseudopotentials available

Pseudized shells:
4s( 2.00) rc: 1.82
4p( 4.00) rc: 1.50
3d(10.00) rc: 1.91
Valence configuration for ps generation: 3d:4s:4p: Total charge:  16.000000
Semicore shell(s): 3d
For W, standard SIESTA heuristics set lmxkb to 3
 (one more than the basis l, including polarization orbitals).
Use PS.lmax or PS.KBprojectors blocks to override.
For Se, standard SIESTA heuristics set lmxkb to 3
 (one more than the basis l, including polarization orbitals).
Use PS.lmax or PS.KBprojectors blocks to override.
Se pseudopotential only contains V_ls up to l=2 -- lmxkb reset.

<basis_specs>
===============================================================================
W                    Z=  74    Mass=  183.85        Charge= 0.17977+309
Lmxo=2 Lmxkb= 3    BasisType=split      Semic=T
L=0  Nsemic=1  Cnfigmx=6
          i=1  nzeta=1  polorb=0  (5s)  (semicore shell)
            splnorm:   0.15000    
               vcte:    40.000    
               rinn:  -0.90000    
               qcoe:    0.0000    
               qyuk:    0.0000    
               qwid:   0.10000E-01
                rcs:    0.0000    
            lambdas:    1.0000    
          i=2  nzeta=2  polorb=1  (6s)  (to be polarized perturbatively)
            splnorm:   0.15000    
               vcte:    40.000    
               rinn:  -0.90000    
               qcoe:    0.0000    
               qyuk:    0.0000    
               qwid:   0.10000E-01
                rcs:    0.0000      0.0000    
            lambdas:    1.0000      1.0000    
L=1  Nsemic=1  Cnfigmx=6
          i=1  nzeta=1  polorb=0  (5p)  (semicore shell)
            splnorm:   0.15000    
               vcte:    40.000    
               rinn:  -0.90000    
               qcoe:    0.0000    
               qyuk:    0.0000    
               qwid:   0.10000E-01
                rcs:    0.0000    
            lambdas:    1.0000    
          i=2  nzeta=0  polorb=0  (6p)  (perturbative polarization orbital) (from 6s)
L=2  Nsemic=0  Cnfigmx=5
          i=1  nzeta=2  polorb=0  (5d)
            splnorm:   0.15000    
               vcte:    40.000    
               rinn:  -0.90000    
               qcoe:    0.0000    
               qyuk:    0.0000    
               qwid:   0.10000E-01
                rcs:    0.0000      0.0000    
            lambdas:    1.0000      1.0000    
-------------------------------------------------------------------------------
L=0  Nkbl=2  erefs: 0.17977+309 0.17977+309
L=1  Nkbl=2  erefs: 0.17977+309 0.17977+309
L=2  Nkbl=1  erefs: 0.17977+309
L=3  Nkbl=1  erefs: 0.17977+309
===============================================================================
</basis_specs>

atom: Called for W                     (Z =  74)

read_vps: Pseudopotential generation method:
read_vps: ONCVPSP-3.Hamann's oncvpsp                        
Valence charge in pseudo generation:   14.00000

read_vps: Pseudopotential includes a core correction:
read_vps: Pseudo-core for xc-correction

xc_check: Exchange-correlation functional:
xc_check: GGA Perdew, Burke & Ernzerhof 1996
Got Vlocal (oncv-fit) from psml data
Choosing vlocal chloc cutoff:  4.994954
qtot up to nchloc:   13.99954766
atom: Maximum radius for chlocal:    4.99495
atom: Maximum radius for r*vlocal+2*Zval:    4.99495
Reading KB projs from W psml data
Using lj projectors in PSML file

PSML: Kleinman-Bylander projectors: 
   l= 0   rc=  1.641999   Ekb=  3.682478
   l= 0   rc=  1.641999   Ekb= 26.005903
j- l= 1   rc=  1.641999   Ekb=  2.792811
j+ l= 1   rc=  1.641999   Ekb=  2.781870
j- l= 1   rc=  1.641999   Ekb= 16.868680
j+ l= 1   rc=  1.641999   Ekb= 18.601262
j- l= 2   rc=  1.641999   Ekb=  1.058539
j+ l= 2   rc=  1.641999   Ekb=  1.000898
j- l= 2   rc=  1.641999   Ekb=  8.883367
j+ l= 2   rc=  1.641999   Ekb=  8.974346
j- l= 3   rc=  2.056321   Ekb=  1.760120
j+ l= 3   rc=  2.056321   Ekb=  1.779926
j- l= 3   rc=  2.056321   Ekb= 74.891207
j+ l= 3   rc=  2.056321   Ekb=125.668686

PSML: Total number of  Kleinman-Bylander projectors:  62
atom: -------------------------------------------------------------------------

atom: SANKEY-TYPE ORBITALS:
atom: Selected multiple-zeta basis: split     

SPLIT: Orbitals with angular momentum L= 0

SPLIT: Basis orbitals for state 5s

SPLIT: PAO cut-off radius determined from an
SPLIT: energy shift=  0.007350 Ry

   izeta = 1
                 lambda =    1.000000
                     rc =    2.846025
                 energy =   -5.789432
                kinetic =    2.190614
    potential(screened) =   -7.980046
       potential(ionic) =  -24.393628

SPLIT: Basis orbitals for state 6s

SPLIT: PAO cut-off radius determined from an
SPLIT: energy shift=  0.007350 Ry

   izeta = 1
                 lambda =    1.000000
                     rc =    7.000140
                 energy =   -0.478742
                kinetic =    1.137002
    potential(screened) =   -1.615745
       potential(ionic) =  -11.381995

   izeta = 2
                 rmatch =    5.950226
              splitnorm =    0.150000
                 energy =   -0.420620
                kinetic =    1.606357
    potential(screened) =   -2.026977
       potential(ionic) =  -12.800755

SPLIT: Orbitals with angular momentum L= 1

SPLIT: Basis orbitals for state 5p

SPLIT: PAO cut-off radius determined from an
SPLIT: energy shift=  0.007350 Ry

   izeta = 1
                 lambda =    1.000000
                     rc =    3.390322
                 energy =   -3.181649
                kinetic =    3.700658
    potential(screened) =   -6.882308
       potential(ionic) =  -22.478772

SPLIT: Orbitals with angular momentum L= 2

SPLIT: Basis orbitals for state 5d

SPLIT: PAO cut-off radius determined from an
SPLIT: energy shift=  0.007350 Ry

   izeta = 1
                 lambda =    1.000000
                     rc =    5.876311
                 energy =   -0.320882
                kinetic =    3.247516
    potential(screened) =   -3.568397
       potential(ionic) =  -16.118392

   izeta = 2
                 rmatch =    3.654377
              splitnorm =    0.150000
                 energy =   -0.156053
                kinetic =    4.528454
    potential(screened) =   -4.684507
       potential(ionic) =  -18.684951

POLgen: Perturbative polarization orbital with L=  1

POLgen: Polarization orbital for state 6s

   izeta = 1
                     rc =    7.000140
                 energy =   -0.009497
                kinetic =    1.359080
    potential(screened) =   -1.368577
       potential(ionic) =  -10.117235
atom: Total number of Sankey-type orbitals: 19

atm_pop: Valence configuration (for local Pseudopot. screening):
 5s( 2.00) 6s( 2.00)                                                  
 5p( 6.00) 6p( 0.00)                                                  
 5d( 4.00)                                                            
Vna: chval, zval:   14.00000  14.00000

Vna:  Cut-off radius for the neutral-atom potential:   7.000140
comcore: Pseudo-core radius Rcore=  3.067687

atom: _________________________________________________________________________

<basis_specs>
===============================================================================
Se                   Z=  34    Mass=  78.960        Charge= 0.17977+309
Lmxo=2 Lmxkb= 2    BasisType=split      Semic=T
L=0  Nsemic=0  Cnfigmx=4
          i=1  nzeta=2  polorb=0  (4s)
            splnorm:   0.15000    
               vcte:    40.000    
               rinn:  -0.90000    
               qcoe:    0.0000    
               qyuk:    0.0000    
               qwid:   0.10000E-01
                rcs:    0.0000      0.0000    
            lambdas:    1.0000      1.0000    
L=1  Nsemic=0  Cnfigmx=4
          i=1  nzeta=2  polorb=1  (4p)  (to be polarized perturbatively)
            splnorm:   0.15000    
               vcte:    40.000    
               rinn:  -0.90000    
               qcoe:    0.0000    
               qyuk:    0.0000    
               qwid:   0.10000E-01
                rcs:    0.0000      0.0000    
            lambdas:    1.0000      1.0000    
L=2  Nsemic=1  Cnfigmx=4
          i=1  nzeta=1  polorb=0  (3d)  (semicore shell)
            splnorm:   0.15000    
               vcte:    40.000    
               rinn:  -0.90000    
               qcoe:    0.0000    
               qyuk:    0.0000    
               qwid:   0.10000E-01
                rcs:    0.0000    
            lambdas:    1.0000    
          i=2  nzeta=0  polorb=0  (4d)  (perturbative polarization orbital) (from 4p)
-------------------------------------------------------------------------------
L=0  Nkbl=1  erefs: 0.17977+309
L=1  Nkbl=1  erefs: 0.17977+309
L=2  Nkbl=2  erefs: 0.17977+309 0.17977+309
===============================================================================
</basis_specs>

atom: Called for Se                    (Z =  34)

read_vps: Pseudopotential generation method:
read_vps: ONCVPSP-3.Hamann's oncvpsp                        
Valence charge in pseudo generation:   16.00000

read_vps: Pseudopotential includes a core correction:
read_vps: Pseudo-core for xc-correction

xc_check: Exchange-correlation functional:
xc_check: GGA Perdew, Burke & Ernzerhof 1996
Got Vlocal (oncv-fit) from psml data
Choosing vlocal chloc cutoff:  3.114648
qtot up to nchloc:   16.00003220
atom: Maximum radius for chlocal:    3.11465
atom: Maximum radius for r*vlocal+2*Zval:    3.11465
Reading KB projs from Se psml data
Using lj projectors in PSML file

PSML: Kleinman-Bylander projectors: 
   l= 0   rc=  1.842457   Ekb=  2.023315
   l= 0   rc=  1.842457   Ekb= 17.961052
j- l= 1   rc=  1.527438   Ekb=  2.370081
j+ l= 1   rc=  1.527438   Ekb=  2.655022
j- l= 1   rc=  1.527438   Ekb= 12.599568
j+ l= 1   rc=  1.527438   Ekb= 14.241848
j- l= 2   rc=  1.936925   Ekb=-18.555349
j+ l= 2   rc=  1.936925   Ekb=-18.474796
j- l= 2   rc=  1.936925   Ekb= -7.525332
j+ l= 2   rc=  1.936925   Ekb= -7.466893

PSML: Total number of  Kleinman-Bylander projectors:  34
atom: -------------------------------------------------------------------------

atom: SANKEY-TYPE ORBITALS:
atom: Selected multiple-zeta basis: split     

SPLIT: Orbitals with angular momentum L= 0

SPLIT: Basis orbitals for state 4s

SPLIT: PAO cut-off radius determined from an
SPLIT: energy shift=  0.007350 Ry

   izeta = 1
                 lambda =    1.000000
                     rc =    4.704992
                 energy =   -1.262039
                kinetic =    0.893254
    potential(screened) =   -2.155293
       potential(ionic) =  -18.975569

   izeta = 2
                 rmatch =    3.664235
              splitnorm =    0.150000
                 energy =   -1.097316
                kinetic =    1.409238
    potential(screened) =   -2.506554
       potential(ionic) =  -20.429933

SPLIT: Orbitals with angular momentum L= 1

SPLIT: Basis orbitals for state 4p

SPLIT: PAO cut-off radius determined from an
SPLIT: energy shift=  0.007350 Ry

   izeta = 1
                 lambda =    1.000000
                     rc =    6.041349
                 energy =   -0.470233
                kinetic =    1.173407
    potential(screened) =   -1.643640
       potential(ionic) =  -16.006324

   izeta = 2
                 rmatch =    4.257245
              splitnorm =    0.150000
                 energy =   -0.338768
                kinetic =    1.720586
    potential(screened) =   -2.059354
       potential(ionic) =  -18.304503

SPLIT: Orbitals with angular momentum L= 2

SPLIT: Basis orbitals for state 3d

SPLIT: PAO cut-off radius determined from an
SPLIT: energy shift=  0.007350 Ry

   izeta = 1
                 lambda =    1.000000
                     rc =    2.456186
                 energy =   -3.892899
                kinetic =   15.127128
    potential(screened) =  -19.020027
       potential(ionic) =  -43.571896

POLgen: Perturbative polarization orbital with L=  2

POLgen: Polarization orbital for state 4p

   izeta = 1
                     rc =    6.041349
                 energy =    0.492392
                kinetic =    1.741782
    potential(screened) =   -1.249390
       potential(ionic) =  -13.723995
atom: Total number of Sankey-type orbitals: 18

atm_pop: Valence configuration (for local Pseudopot. screening):
 4s( 2.00)                                                            
 4p( 4.00)                                                            
 3d(10.00) 4d( 0.00)                                                  
Vna: chval, zval:   16.00000  16.00000

Vna:  Cut-off radius for the neutral-atom potential:   6.041349
comcore: Pseudo-core radius Rcore=  2.518367

atom: _________________________________________________________________________

prinput: Basis input 
* WARNING: This information might be incomplete!!!
----------------------------------------------------------

PAO.BasisType split     

%block ChemicalSpeciesLabel
    1   74 W                       # Species index, atomic number, species label
    2   34 Se                      # Species index, atomic number, species label
%endblock ChemicalSpeciesLabel

%block PAO.Basis                 # Define Basis set
# WARNING: This information might be incomplete!!!
W                     4                    # Species label, number of l-shells
 n=5   0   1                         # n, l, Nzeta 
   2.846   
   1.000   
 n=6   0   2 P   1                   # n, l, Nzeta, Polarization, NzetaPol
   7.000      5.950   
   1.000      1.000   
 n=5   1   1                         # n, l, Nzeta 
   3.390   
   1.000   
 n=5   2   2                         # n, l, Nzeta 
   5.876      3.654   
   1.000      1.000   
Se                    3                    # Species label, number of l-shells
 n=4   0   2                         # n, l, Nzeta 
   4.705      3.664   
   1.000      1.000   
 n=4   1   2 P   1                   # n, l, Nzeta, Polarization, NzetaPol
   6.041      4.257   
   1.000      1.000   
 n=3   2   1                         # n, l, Nzeta 
   2.456   
   1.000   
%endblock PAO.Basis

prinput: ----------------------------------------------------------------------

Dumping basis to NetCDF file W.ion.nc
Dumping basis to NetCDF file Se.ion.nc
coor:   Atomic-coordinates input format  =     Fractional

siesta: Atomic coordinates (Bohr) and species
siesta:      0.00000   0.00000  11.12959  1        1
siesta:      6.21720   3.58950   8.02231  2        2
siesta:      6.21720   3.58950  14.23687  2        3

siesta: System type = slab      

initatomlists: Number of atoms, orbitals, and projectors:      3    55   130

siesta: ******************** Simulation parameters ****************************
siesta:
siesta: The following are some of the parameters of the simulation.
siesta: A complete list of the parameters used, including default values,
siesta: can be found in file out.fdf
siesta:
redata: Spin configuration                          = spin-orbit+offsite
redata: Number of spin components                   = 8
redata: Time-Reversal Symmetry                      = F
redata: Spin spiral                                 = F
redata: Long output                                 =   F
redata: Number of Atomic Species                    =        2
redata: Charge density info will appear in .RHO file
redata: Write Mulliken Pop.                         = NO
redata: Matel table size (NRTAB)                    =     1024
redata: Mesh Cutoff                                 =  1000.0000 Ry
redata: Net charge of the system                    =     0.0000 |e|
redata: Min. number of SCF Iter                     =        0
redata: Max. number of SCF Iter                     =      300
redata: SCF convergence failure will abort job
redata: SCF mix quantity                            = Hamiltonian
redata: Mix DM or H after convergence               =   F
redata: Recompute H after scf cycle                 =   F
redata: Mix DM in first SCF step                    =   T
redata: Write Pulay info on disk                    =   F
redata: New DM Occupancy tolerance                  = 0.000000000001
redata: No kicks to SCF
redata: DM Mixing Weight for Kicks                  =     0.5000
redata: Require Harris convergence for SCF          =   F
redata: Harris energy tolerance for SCF             =     0.000100 eV
redata: Require DM convergence for SCF              =   T
redata: DM tolerance for SCF                        =     0.000001
redata: Require EDM convergence for SCF             =   F
redata: EDM tolerance for SCF                       =     0.001000 eV
redata: Require H convergence for SCF               =   F
redata: Hamiltonian tolerance for SCF               =     0.001000 eV
redata: Require (free) Energy convergence for SCF   =   F
redata: (free) Energy tolerance for SCF             =     0.000100 eV
redata: Using Saved Data (generic)                  =   F
redata: Use continuation files for DM               =   T
redata: Neglect nonoverlap interactions             =   F
redata: Method of Calculation                       = Diagonalization
redata: Electronic Temperature                      =    11.6044 K
redata: Fix the spin of the system                  =   F
redata: Split SR and SO contributions               =   F
redata: Max. number of TDED Iter                    =        1
redata: Number of TDED substeps                     =        3
redata: Dynamics option                             = Single-point calculation
mix.SCF: Pulay mixing                            = Pulay
mix.SCF:    Variant                              = stable
mix.SCF:    History steps                        = 3
mix.SCF:    Linear mixing weight                 =     0.300000
mix.SCF:    Mixing weight                        =     0.300000
mix.SCF:    SVD condition                        = 0.1000E-07
mix.SCF: Spin-component mixing                   all
redata: Save all siesta data in one NC              =   F
redata: ***********************************************************************

%block SCF.Mixers
  Pulay
%endblock SCF.Mixers

%block SCF.Mixer.Pulay
  # Mixing method
  method pulay
  variant stable

  # Mixing options
  weight 0.3000
  weight.linear 0.3000
  history 3
%endblock SCF.Mixer.Pulay
 
DM_history_depth set to one: no extrapolation allowed by default for geometry relaxation
Size of DM history Fstack: 1
Total number of electrons:    46.000000
Total ionic charge:    46.000000

* ProcessorY, Blocksize:    2   1


* Orbital distribution balance (max,min):     2     1

k-point displ. along   1 input, could be:     0.00    0.50
k-point displ. along   2 input, could be:     0.00    0.50

Time-reversal symmetry not used.

siesta: k-grid: Number of k-points =       144
siesta: k-points from Monkhorst-Pack grid
siesta: k-cutoff (effective) =    11.000 Ang
siesta: k-point supercell and displacements
siesta: k-grid:   12   0   0      0.000
siesta: k-grid:    0  12   0      0.000
siesta: k-grid:    0   0   1      0.000
 
diag: Algorithm                                     = D&C
diag: Parallel over k                               =   T
diag: Use parallel 2D distribution                  =   T
diag: Parallel block-size                           = 1
diag: Parallel distribution                         =     4 x     8
diag: Used triangular part                          = Lower
diag: Absolute tolerance                            =  0.100E-15
diag: Orthogonalization factor                      =  0.100E-05
diag: Memory factor                                 =  1.0000
Using current reciprocal lattice vectors for BandLinesScale
Beware any cell changes by the end of the run
Using current reciprocal lattice vectors for BandLinesScale
Beware any cell changes by the end of the run

superc: Internal auxiliary supercell:     7 x     7 x     1  =      49
superc: Number of atoms, orbitals, and projectors:    147   2695   6370
 
 
ts: **************************************************************
ts: Save H and S matrices                           =    F
ts: Save DM and EDM matrices                        =    F
ts: Only save the overlap matrix S                  =    F
ts: **************************************************************
 
************************ Begin: TS CHECKS AND WARNINGS ************************
************************ End: TS CHECKS AND WARNINGS **************************


                     ====================================
                        Single-point calculation
                     ====================================

superc: Internal auxiliary supercell:     7 x     7 x     1  =      49
superc: Number of atoms, orbitals, and projectors:    147   2695   6370

outcell: Unit cell vectors (Ang):
        3.290000    0.000000    0.000000
        1.645000    2.849224    0.000000
        0.000000    0.000000   22.000000

outcell: Cell vector modules (Ang)   :    3.290000    3.290000   22.000000
outcell: Cell angles (23,13,12) (deg):     90.0000     90.0000     60.0000
outcell: Cell volume (Ang**3)        :    206.2268
<dSpData1D:S at geom step 0
  <sparsity:sparsity for geom step 0
    nrows_g=55 nrows=2 sparsity=.3831 nnzs=1159, refcount: 8>
  <dData1D:(new from dSpData1D) n=1159, refcount: 1>
refcount: 1>
new_DM -- step:     1
Initializing Density Matrix...
 
Attempting to read DM from file... Failed...
DM filled with atomic data:
<dSpData2D:DM initialized from atoms
  <sparsity:sparsity for geom step 0
    nrows_g=55 nrows=2 sparsity=.3831 nnzs=1159, refcount: 9>
  <dData2D:DM n=1159 m=8, refcount: 1>
refcount: 1>
     spin moment: {S} , |S| = {    0.00000    0.00000    8.00000 }     8.00000

InitMesh: MESH = 60 x 60 x 432 = 1555200
InitMesh: Mesh cutoff (required, used) =  1000.000  1065.673 Ry
New grid distribution [1]: sub = 2
New grid distribution [2]: sub = 2
New grid distribution [3]: sub = 2
Setting up quadratic distribution...

stepf: Fermi-Dirac step function

siesta: Program's energy decomposition (eV):
siesta: Ebs     =     -1850.305944
siesta: Eions   =     10679.943448
siesta: Ena     =      1467.705150
siesta: Ekin    =      4757.620367
siesta: Enl(+so)=     -2529.901208
siesta: Eso(nil)=         0.000000
siesta: Edftu   =         0.000000
siesta: DEna    =        82.741517
siesta: DUscf   =         8.091057
siesta: DUext   =         0.000000
siesta: Ex      =     -1664.282441
siesta: Ec      =       -98.437427
siesta: Exc     =     -1762.719868
siesta: eta*DQ  =         0.000000
siesta: Emadel  =         0.000000
siesta: Emeta   =         0.000000
siesta: Emolmec =         0.000000
siesta: Ekinion =         0.000000
siesta: Eharris =     -8635.949687
siesta: Etot    =     -8656.406432
siesta: FreeEng =     -8656.406472

        iscf     Eharris(eV)        E_KS(eV)     FreeEng(eV)     dDmax    Ef(eV) dHmax(eV)
   scf:    1    -8635.949687    -8656.406432    -8656.406472  0.820221 -2.243333 19.037546
     spin moment: {S} , |S| = {    0.00000   -0.00000    0.27802 }     0.27802
timer: Routine,Calls,Time,% = IterSCF        1       0.810   2.46
   scf:    2    -8646.138883    -8658.616371    -8658.616377  0.230686 -5.178181 12.840248
     spin moment: {S} , |S| = {   -0.00000    0.00000    0.21514 }     0.21514
   scf:    3    -8662.811685    -8662.272843    -8662.272844  0.127500 -3.823293  1.677048
     spin moment: {S} , |S| = {   -0.00000    0.00000    0.02838 }     0.02838
   scf:    4    -8662.299081    -8662.308912    -8662.308912  0.050633 -3.768722  1.774122
     spin moment: {S} , |S| = {    0.00000    0.00000    0.00211 }     0.00211
   scf:    5    -8662.360468    -8662.369113    -8662.369113  0.016419 -3.490534  0.459235
     spin moment: {S} , |S| = {    0.00000    0.00000    0.00231 }     0.00231
   scf:    6    -8662.377329    -8662.373016    -8662.373016  0.004837 -3.519472  0.241456
     spin moment: {S} , |S| = {    0.00000    0.00000    0.00121 }     0.00121
   scf:    7    -8662.377181    -8662.375839    -8662.375839  0.004814 -3.524128  0.063847
     spin moment: {S} , |S| = {    0.00000    0.00000    0.00003 }     0.00003
   scf:    8    -8662.374941    -8662.376323    -8662.376323  0.002223 -3.498190  0.031240
     spin moment: {S} , |S| = {   -0.00000   -0.00000    0.00009 }     0.00009
   scf:    9    -8662.376377    -8662.376400    -8662.376400  0.000579 -3.492476  0.021595
     spin moment: {S} , |S| = {   -0.00000   -0.00000    0.00012 }     0.00012
   scf:   10    -8662.376479    -8662.376455    -8662.376455  0.000431 -3.491768  0.013591
     spin moment: {S} , |S| = {   -0.00000   -0.00000    0.00009 }     0.00009
   scf:   11    -8662.376561    -8662.376503    -8662.376503  0.000510 -3.490680  0.009782
     spin moment: {S} , |S| = {   -0.00000   -0.00000    0.00006 }     0.00006
   scf:   12    -8662.376577    -8662.376540    -8662.376540  0.000653 -3.488660  0.007697
     spin moment: {S} , |S| = {   -0.00000   -0.00000    0.00001 }     0.00001
   scf:   13    -8662.376563    -8662.376542    -8662.376542  0.000119 -3.489892  0.005462
     spin moment: {S} , |S| = {   -0.00000   -0.00000    0.00001 }     0.00001
   scf:   14    -8662.376552    -8662.376544    -8662.376544  0.000102 -3.489289  0.002996
     spin moment: {S} , |S| = {   -0.00000   -0.00000    0.00001 }     0.00001
   scf:   15    -8662.376550    -8662.376545    -8662.376545  0.000048 -3.489326  0.002402
     spin moment: {S} , |S| = {   -0.00000   -0.00000    0.00001 }     0.00001
   scf:   16    -8662.376552    -8662.376546    -8662.376546  0.000052 -3.489346  0.001697
     spin moment: {S} , |S| = {   -0.00000   -0.00000    0.00001 }     0.00001
   scf:   17    -8662.376555    -8662.376547    -8662.376547  0.000072 -3.489134  0.001521
     spin moment: {S} , |S| = {    0.00000    0.00000    0.00000 }     0.00000
   scf:   18    -8662.376553    -8662.376547    -8662.376547  0.000086 -3.489120  0.000921
     spin moment: {S} , |S| = {    0.00000    0.00000    0.00000 }     0.00000
   scf:   19    -8662.376546    -8662.376547    -8662.376547  0.000017 -3.489028  0.000741
     spin moment: {S} , |S| = {    0.00000    0.00000    0.00000 }     0.00000
   scf:   20    -8662.376547    -8662.376547    -8662.376547  0.000009 -3.488978  0.000495
     spin moment: {S} , |S| = {    0.00000    0.00000    0.00000 }     0.00000
   scf:   21    -8662.376547    -8662.376547    -8662.376547  0.000010 -3.488976  0.000314
     spin moment: {S} , |S| = {    0.00000    0.00000    0.00000 }     0.00000
   scf:   22    -8662.376547    -8662.376547    -8662.376547  0.000010 -3.488926  0.000260
     spin moment: {S} , |S| = {    0.00000    0.00000    0.00000 }     0.00000
   scf:   23    -8662.376547    -8662.376548    -8662.376548  0.000012 -3.488903  0.000188
     spin moment: {S} , |S| = {    0.00000    0.00000    0.00000 }     0.00000
   scf:   24    -8662.376547    -8662.376548    -8662.376548  0.000008 -3.488886  0.000122
     spin moment: {S} , |S| = {    0.00000    0.00000    0.00000 }     0.00000
   scf:   25    -8662.376548    -8662.376548    -8662.376548  0.000002 -3.488868  0.000107
     spin moment: {S} , |S| = {    0.00000    0.00000    0.00000 }     0.00000
   scf:   26    -8662.376548    -8662.376548    -8662.376548  0.000001 -3.488874  0.000060
     spin moment: {S} , |S| = {    0.00000    0.00000    0.00000 }     0.00000
   scf:   27    -8662.376548    -8662.376548    -8662.376548  0.000001 -3.488869  0.000046
     spin moment: {S} , |S| = {    0.00000    0.00000    0.00000 }     0.00000
   scf:   28    -8662.376548    -8662.376548    -8662.376548  0.000001 -3.488865  0.000037
     spin moment: {S} , |S| = {    0.00000    0.00000    0.00000 }     0.00000
   scf:   29    -8662.376548    -8662.376548    -8662.376548  0.000002 -3.488862  0.000030
     spin moment: {S} , |S| = {    0.00000    0.00000    0.00000 }     0.00000
   scf:   30    -8662.376548    -8662.376548    -8662.376548  0.000001 -3.488857  0.000021
     spin moment: {S} , |S| = {    0.00000    0.00000    0.00000 }     0.00000

SCF Convergence by DM criterion
max |DM_out - DM_in|         :     0.0000006912
max |H_out - H_in|      (eV) :     0.0000211546
SCF cycle converged after 30 iterations

Using DM_out to compute the final energy and forces

siesta: E_KS(eV) =            -8662.3765

siesta: E_KS - E_eggbox =     -8662.3765
     spin moment: {S} , |S| = {    0.00000    0.00000    0.00000 }     0.00000

siesta: Atomic forces (eV/Ang):
----------------------------------------
   Tot   -0.000000   -0.000000   -0.000117
----------------------------------------
   Max    1.072258
   Res    0.504675    sqrt( Sum f_i^2 / 3N )
----------------------------------------
   Max    1.072258    constrained

Stress tensor Voigt[x,y,z,yz,xz,xy] (kbar):      -14.35      -14.35      -27.35       -0.00       -0.00       -0.01
(Free)E + p*V (eV/cell)    -8659.9715
Target enthalpy (eV/cell)    -8662.3765
Computing bands...
Writing WFSX for bands in WSe2.bands.WFSX
*** Note: ParallelOverK option not used for Bands

siesta: Program's energy decomposition (eV):
siesta: Ebs     =     -1639.945699
siesta: Eions   =     10679.943448
siesta: Ena     =      1467.705150
siesta: Ekin    =      4799.563936
siesta: Enl(+so)=     -2525.982250
siesta: Eso(nil)=         0.000000
siesta: Edftu   =         0.000000
siesta: DEna    =        44.695001
siesta: DUscf   =         0.865011
siesta: DUext   =         0.000000
siesta: Ex      =     -1670.560124
siesta: Ec      =       -98.719825
siesta: Exc     =     -1769.279948
siesta: eta*DQ  =         0.000000
siesta: Emadel  =         0.000000
siesta: Emeta   =         0.000000
siesta: Emolmec =         0.000000
siesta: Ekinion =         0.000000
siesta: Eharris =     -8662.376548
siesta: Etot    =     -8662.376548
siesta: FreeEng =     -8662.376548

siesta: Final energy (eV):
siesta:  Band Struct. =   -1639.945699
siesta:       Kinetic =    4799.563936
siesta:       Hartree =   24003.716939
siesta:         Edftu =       0.000000
siesta:      Eso(nil) =       0.000000
siesta:    Ext. field =       0.000000
siesta:         Exch. =   -1670.560124
siesta:         Corr. =     -98.719825
siesta:   Exch.-corr. =   -1769.279948
siesta:  Ion-electron =  -53214.990462
siesta:       Ion-ion =   17518.612988
siesta:       Ekinion =       0.000000
siesta:         Total =   -8662.376548
siesta:         Fermi =      -3.488857

siesta: Atomic forces (eV/Ang):
siesta:      1   -0.000011   -0.000007   -0.003486
siesta:      2    0.000006    0.000003   -1.068889
siesta:      3    0.000006    0.000003    1.072258
siesta: ----------------------------------------
siesta:    Tot   -0.000000   -0.000000   -0.000117

siesta: Stress tensor (static) (eV/Ang**3):
siesta:    -0.008959   -0.000004   -0.000000
siesta:    -0.000004   -0.008954   -0.000000
siesta:    -0.000000   -0.000000   -0.017073

siesta: Cell volume =        206.226803 Ang**3

siesta: Pressure (static):
siesta:                Solid            Molecule  Units
siesta:           0.00012702          0.00006504  Ry/Bohr**3
siesta:           0.01166235          0.00597163  eV/Ang**3
siesta:          18.68535216          9.56771177  kBar
(Free)E+ p_basis*V_orbitals  =       -8660.375089
(Free)Eharris+ p_basis*V_orbitals  =       -8660.375089
     spin moment: {S} , |S| = {    0.00000    0.00000    0.00000 }     0.00000

siesta: Electric dipole (a.u.)  =    0.000000    0.000000    0.000007
siesta: Electric dipole (Debye) =    0.000000    0.000000    0.000019

cite: Please see "WSe2.bib" for an exhaustive BiBTeX file.
cite: Please clearly indicate Siesta version in published work: 5.0.0-alpha-45-gffa4e7d86
cite: This calculation has made use of the following articles
cite: which are encouraged to be cited in a published work.
        Primary SIESTA paper
          DOI: www.doi.org/10.1088/0953-8984/14/11/302
        Spin-orbit coupling (off-site approximation)
          DOI: www.doi.org/10.1088/0953-8984/24/8/086005
 
 
>> End of run:   3-SEP-2022  17:50:22
Job completed
TACC:  Shutdown complete. Exiting. 
