<preamble>

<basis_specs>
===============================================================================
W                    Z=  74    Mass=  183.85        Charge= 0.17977+309
Lmxo=2 Lmxkb= 3    BasisType=split      Semic=T
L=0  Nsemic=1  Cnfigmx=6
          i=1  nzeta=1  polorb=0  (5s)  (semicore shell)
            splnorm:   0.15000    
               vcte:    40.000    
               rinn:    2.5936    
               qcoe:    0.0000    
               qyuk:    0.0000    
               qwid:   0.10000E-01
                rcs:    2.8460    
            lambdas:    1.0000    
          i=2  nzeta=2  polorb=1  (6s)  (to be polarized perturbatively)
            splnorm:   0.15000    
               vcte:    40.000    
               rinn:    6.3001    
               qcoe:    0.0000    
               qyuk:    0.0000    
               qwid:   0.10000E-01
                rcs:    7.0001      5.9502    
            lambdas:    1.0000      1.0000    
L=1  Nsemic=1  Cnfigmx=6
          i=1  nzeta=1  polorb=0  (5p)  (semicore shell)
            splnorm:   0.15000    
               vcte:    40.000    
               rinn:    3.0897    
               qcoe:    0.0000    
               qyuk:    0.0000    
               qwid:   0.10000E-01
                rcs:    3.3903    
            lambdas:    1.0000    
          i=2  nzeta=0  polorb=0  (6p)  (perturbative polarization orbital) (from 6s)
L=2  Nsemic=0  Cnfigmx=5
          i=1  nzeta=2  polorb=0  (5d)
            splnorm:   0.15000    
               vcte:    40.000    
               rinn:    5.3552    
               qcoe:    0.0000    
               qyuk:    0.0000    
               qwid:   0.10000E-01
                rcs:    5.8763      3.6544    
            lambdas:    1.0000      1.0000    
-------------------------------------------------------------------------------
L=0  Nkbl=2  erefs: 0.17977+309 0.17977+309
L=1  Nkbl=2  erefs: 0.17977+309 0.17977+309
L=2  Nkbl=1  erefs: 0.17977+309
L=3  Nkbl=1  erefs: 0.17977+309
===============================================================================
</basis_specs>

<pseudopotential_header>
 W  pb rel pcec
 ONCVPSP-3.2018-04-17Hamann's oncvpsp                        
 5s 2.00r r= 1.61/5p 6.00r r= 1.61/5d 4.00r r= 1.61/5f 0.00r r= 2.02/   5s:5p:5d:6s:
</pseudopotential_header>
</preamble>
W                             # Symbol
W                             # Label
   74                         # Atomic number
     14.0000000000                             # Valence charge
     183.850000000        # Mass 
     274.926077552        # Self energy 
   2   7                      # Lmax for basis, no. of nl orbitals 
   3  14 T                    # Lmax for projectors, no. of nl KB projectors, LJ projs?
# PAOs:__________________________
  0  5  1  0  2.000000   #orbital l, n, z, is_polarized, population
 500    0.5703456077411529E-02     2.846024582628353     # npts, delta, cutoff
     0.000000000000000        0.7851088443583122    
    0.5703456077411529E-02    0.7851871467406796    
    0.1140691215482306E-01    0.7854242890734859    
    0.1711036823223459E-01    0.7858193550617720    
    0.2281382430964611E-01    0.7863720879011296    
    0.2851728038705764E-01    0.7870821283098963    
    0.3422073646446917E-01    0.7879490147475809    
    0.3992419254188070E-01    0.7889721837061531    
    0.4562764861929223E-01    0.7901509700670883    
    0.5133110469670376E-01    0.7914846075232614    
    0.5703456077411528E-01    0.7929722290653367    
    0.6273801685152681E-01    0.7946128675324087    
    0.6844147292893835E-01    0.7964054562266532    
    0.7414492900634988E-01    0.7983488295916868    
    0.7984838508376139E-01    0.8004417239543675    
    0.8555184116117293E-01    0.8026827783296768    
    0.9125529723858446E-01    0.8050705352883405    
    0.9695875331599599E-01    0.8076034418867848    
    0.1026622093934075        0.8102798506590065    
    0.1083656654708190        0.8130980206698967    
    0.1140691215482306        0.8160561186295267    
    0.1197725776256421        0.8191522200678619    
    0.1254760337030536        0.8223843105693462    
    0.1311794897804651        0.8257502870667577    
    0.1368829458578767        0.8292479591936933    
    0.1425864019352882        0.8328750506950061    
    0.1482898580126998        0.8366292008944933    
    0.1539933140901113        0.8405079662190665    
    0.1596967701675228        0.8445088217786196    
    0.1654002262449343        0.8486291630007574    
    0.1711036823223459        0.8528663073195183    
    0.1768071383997574        0.8572174959171458    
    0.1825105944771689        0.8616798955179912    
    0.1882140505545804        0.8662506002334893    
    0.1939175066319920        0.8709266334572184    
    0.1996209627094035        0.8757049498088884    
    0.2053244187868150        0.8805824371261801    
    0.2110278748642266        0.8855559185031988    
    0.2167313309416381        0.8906221543743539    
    0.2224347870190496        0.8957778446423633    
    0.2281382430964611        0.9010196308490752    
    0.2338416991738727        0.9063440983877379    
    0.2395451552512842        0.9117477787552906    
    0.2452486113286957        0.9172271518432532    
    0.2509520674061073        0.9227786482656627    
    0.2566555234835188        0.9283986517225388    
    0.2623589795609303        0.9340835013972746    
    0.2680624356383419        0.9398294943863086    
    0.2737658917157534        0.9456328881594067    
    0.2794693477931649        0.9514899030488054    
    0.2851728038705764        0.9573967247654668    
    0.2908762599479879        0.9633495069406364    
    0.2965797160253995        0.9693443736908298    
    0.3022831721028110        0.9753774222043802    
    0.3079866281802225        0.9814447253476172    
    0.3136900842576341        0.9875423342886879    
    0.3193935403350456        0.9936662811370661    
    0.3250969964124572        0.9998125815966551    
    0.3308004524898687         1.005977237630486    
    0.3365039085672802         1.012156240134861    
    0.3422073646446917         1.018345571620846    
    0.3479108207221032         1.024541208900970    
    0.3536142767995148         1.030739125778927    
    0.3593177328769263         1.036935295740142    
    0.3650211889543378         1.043125694640900    
    0.3707246450317493         1.049306303393923    
    0.3764281011091609         1.055473110648040    
    0.3821315571865724         1.061622115459784    
    0.3878350132639840         1.067749329954570    
    0.3935384693413955         1.073850781975272    
    0.3992419254188070         1.079922517715840    
    0.4049453814962185         1.085960604337755    
    0.4106488375736301         1.091961132566988    
    0.4163522936510416         1.097920219269254    
    0.4220557497284531         1.103834010001271    
    0.4277592058058646         1.109698681535771    
    0.4334626618832761         1.115510444358079    
    0.4391661179606877         1.121265545131981    
    0.4448695740380992         1.126960269132766    
    0.4505730301155108         1.132590942645207    
    0.4562764861929223         1.138153935324390    
    0.4619799422703338         1.143645662517263    
    0.4676833983477454         1.149062587542823    
    0.4733868544251569         1.154401223928946    
    0.4790903105025684         1.159658137603806    
    0.4847937665799799         1.164829949039971    
    0.4904972226573914         1.169913335349270    
    0.4962006787348030         1.174905032326534    
    0.5019041348122145         1.179801836440479    
    0.5076075908896260         1.184600606769888    
    0.5133110469670376         1.189298266883495    
    0.5190145030444491         1.193891806661885    
    0.5247179591218606         1.198378284059837    
    0.5304214151992721         1.202754826807658    
    0.5361248712766837         1.207018634050029    
    0.5418283273540953         1.211166977921017    
    0.5475317834315068         1.215197205053983    
    0.5532352395089183         1.219106738025137    
    0.5589386955863298         1.222893076729626    
    0.5646421516637413         1.226553799689107    
    0.5703456077411528         1.230086565289795    
    0.5760490638185644         1.233489112950116    
    0.5817525198959759         1.236759264217161    
    0.5874559759733874         1.239894923791186    
    0.5931594320507990         1.242894080477529    
    0.5988628881282105         1.245754808065419    
    0.6045663442056221         1.248475266133159    
    0.6102698002830336         1.251053700779348    
    0.6159732563604451         1.253488445279829    
    0.6216767124378566         1.255777920670194    
    0.6273801685152681         1.257920636253689    
    0.6330836245926796         1.259915190034540    
    0.6387870806700912         1.261760269076757    
    0.6444905367475027         1.263454649788567    
    0.6501939928249143         1.264997198132715    
    0.6558974489023258         1.266386869763001    
    0.6616009049797373         1.267622710087441    
    0.6673043610571489         1.268703854258560    
    0.6730078171345604         1.269629527091425    
    0.6787112732119719         1.270399042910094    
    0.6844147292893834         1.271011805323217    
    0.6901181853667949         1.271467306929642    
    0.6958216414442064         1.271765128954945    
    0.7015250975216180         1.271904940819864    
    0.7072285535990296         1.271886499641723    
    0.7129320096764411         1.271709649669954    
    0.7186354657538526         1.271374321656969    
    0.7243389218312641         1.270880532165633    
    0.7300423779086757         1.270228382814676    
    0.7357458339860872         1.269418059463481    
    0.7414492900634987         1.268449831337684    
    0.7471527461409102         1.267324050097122    
    0.7528562022183217         1.266041148847704    
    0.7585596582957334         1.264601641098833    
    0.7642631143731449         1.263006119668062    
    0.7699665704505564         1.261255255534702    
    0.7756700265279679         1.259349796644128    
    0.7813734826053794         1.257290566664619    
    0.7870769386827909         1.255078463698539    
    0.7927803947602025         1.252714458949738    
    0.7984838508376140         1.250199595349083    
    0.8041873069150255         1.247534986140011    
    0.8098907629924370         1.244721813426079    
    0.8155942190698486         1.241761326682451    
    0.8212976751472602         1.238654841233312    
    0.8270011312246717         1.235403736697193    
    0.8327045873020832         1.232009455431839    
    0.8384080433794947         1.228473500746138    
    0.8441114994569062         1.224797435479358    
    0.8498149555343177         1.220982881173482    
    0.8555184116117293         1.217031513688516    
    0.8612218676891408         1.212945061367826    
    0.8669253237665523         1.208725314131160    
    0.8726287798439639         1.204374118219443    
    0.8783322359213754         1.199893353691467    
    0.8840356919987870         1.195284939001837    
    0.8897391480761985         1.190550849941250    
    0.8954426041536100         1.185693112031919    
    0.9011460602310215         1.180713788038526    
    0.9068495163084330         1.175614979920175    
    0.9125529723858445         1.170398829848265    
    0.9182564284632561         1.165067516236635    
    0.9239598845406676         1.159623252370171    
    0.9296633406180792         1.154068284606111    
    0.9353667966954907         1.148404890579254    
    0.9410702527729022         1.142635377412440    
    0.9467737088503138         1.136762079933845    
    0.9524771649277253         1.130787358902595    
    0.9581806210051368         1.124713599244134    
    0.9638840770825483         1.118543208296767    
    0.9695875331599598         1.112278614070699    
    0.9752909892373713         1.105922263520911    
    0.9809944453147829         1.099476620835064    
    0.9866979013921945         1.092944165737686    
    0.9924013574696060         1.086327391811742    
    0.9981048135470175         1.079628804838691    
     1.003808269624429         1.072850921158075    
     1.009511725701840         1.065996266047593    
     1.015215181779252         1.059067372124623    
     1.020918637856664         1.052066777770029    
     1.026622093934075         1.044997025575120    
     1.032325550011487         1.037860660812468    
     1.038029006088898         1.030660229931351    
     1.043732462166310         1.023398279078453    
     1.049435918243721         1.016077352644434    
     1.055139374321133         1.008699991836965    
     1.060842830398544         1.001268733280671    
     1.066546286475956        0.9937861076445179    
     1.072249742553367        0.9862546382969866    
     1.077953198630779        0.9786768399894327    
     1.083656654708191        0.9710552175679719    
     1.089360110785602        0.9633922647140990    
     1.095063566863014        0.9556904627144044    
     1.100767022940425        0.9479522792593996    
     1.106470479017837        0.9401801672717697    
     1.112173935095248        0.9323765637640541    
     1.117877391172660        0.9245438887258602    
     1.123580847250071        0.9166845440407417    
     1.129284303327483        0.9088009124325548    
     1.134987759404894        0.9008953564414964    
     1.140691215482306        0.8929702174295823    
     1.146394671559717        0.8850278146155526    
     1.152098127637129        0.8770704441391785    
     1.157801583714540        0.8691003781546212    
     1.163505039791952        0.8611198639529729    
     1.169208495869363        0.8531311231135281    
     1.174911951946775        0.8451363506837197    
     1.180615408024186        0.8371377143875640    
     1.186318864101598        0.8291373538621606    
     1.192022320179009        0.8211373799222922    
     1.197725776256421        0.8131398738525979    
     1.203429232333832        0.8051468867271574    
     1.209132688411244        0.7971604387563045    
     1.214836144488656        0.7891825186601142    
     1.220539600566067        0.7812150830685662    
     1.226243056643479        0.7732600559478492    
     1.231946512720890        0.7653193280525545    
     1.237649968798302        0.7573947564035765    
     1.243353424875713        0.7494881637911962    
     1.249056880953125        0.7416013383031331    
     1.254760337030536        0.7337360328773431    
     1.260463793107948        0.7258939648790459    
     1.266167249185359        0.7180768157017944    
     1.271870705262771        0.7102862303923290    
     1.277574161340182        0.7025238172987188    
     1.283277617417594        0.6947911477417030    
     1.288981073495005        0.6870897557087857    
     1.294684529572417        0.6794211375708328    
     1.300387985649829        0.6717867518209534    
     1.306091441727240        0.6641880188352820    
     1.311794897804652        0.6566263206554436    
     1.317498353882063        0.6491030007924650    
     1.323201809959475        0.6416193640518072    
     1.328905266036886        0.6341766763793312    
     1.334608722114298        0.6267761647279071    
     1.340312178191709        0.6194190169444739    
     1.346015634269121        0.6121063816773153    
     1.351719090346532        0.6048393683032856    
     1.357422546423944        0.5976190468748481    
     1.363126002501355        0.5904464480867008    
     1.368829458578767        0.5833225632616995    
     1.374532914656178        0.5762483443560421    
     1.380236370733590        0.5692247039834617    
     1.385939826811001        0.5622525154581203    
     1.391643282888413        0.5553326128562707    
     1.397346738965825        0.5484657910963908    
     1.403050195043236        0.5416528060374859    
     1.408753651120648        0.5348943745956821    
     1.414457107198059        0.5281911748788151    
     1.420160563275471        0.5215438463386520    
     1.425864019352882        0.5149529899409830    
     1.431567475430294        0.5084191683532384    
     1.437270931507705        0.5019429061492218    
     1.442974387585117        0.4955246900313043    
     1.448677843662528        0.4891649690696218    
     1.454381299739940        0.4828641549580049    
     1.460084755817351        0.4766226222867755    
     1.465788211894763        0.4704407088322110    
     1.471491667972174        0.4643187158620116    
     1.477195124049586        0.4582569084571017    
     1.482898580126997        0.4522555158507948    
     1.488602036204409        0.4463147317807452    
     1.494305492281820        0.4404347148594586    
     1.500008948359232        0.4346155889598508    
     1.505712404436643        0.4288574436120793    
     1.511415860514055        0.4231603344255939    
     1.517119316591467        0.4175242835227996    
     1.522822772668878        0.4119492799444351    
     1.528526228746290        0.4064352801759819    
     1.534229684823701        0.4009822084943829    
     1.539933140901113        0.3955899578350562    
     1.545636596978524        0.3902583896899445    
     1.551340053055936        0.3849873349550444    
     1.557043509133347        0.3797765950804424    
     1.562746965210759        0.3746259392362568    
     1.568450421288170        0.3695351111822485    
     1.574153877365582        0.3645038240200567    
     1.579857333442994        0.3595317688527561    
     1.585560789520405        0.3546186026001365    
     1.591264245597817        0.3497639557456083    
     1.596967701675228        0.3449674312046577    
     1.602671157752640        0.3402286098208451    
     1.608374613830051        0.3355470454686913    
     1.614078069907463        0.3309222772813296    
     1.619781525984874        0.3263538119649586    
     1.625484982062286        0.3218411616343984    
     1.631188438139697        0.3173838278427873    
     1.636891894217109        0.3129813070413752    
     1.642595350294520        0.3086331011934251    
     1.648298806371932        0.3043387034335871    
     1.654002262449343        0.3000976073248395    
     1.659705718526755        0.2959093119893730    
     1.665409174604166        0.2917733107600218    
     1.671112630681578        0.2876890975261956    
     1.676816086758989        0.2836561664964229    
     1.682519542836401        0.2796740069089076    
     1.688222998913812        0.2757421124667965    
     1.693926454991224        0.2718599758981060    
     1.699629911068635        0.2680270903292922    
     1.705333367146047        0.2642429499881033    
     1.711036823223459        0.2605070494643991    
     1.716740279300870        0.2568188844976447    
     1.722443735378282        0.2531779519456539    
     1.728147191455693        0.2495837500298703    
     1.733850647533105        0.2460357784364444    
     1.739554103610516        0.2425335384742025    
     1.745257559687928        0.2390765331979568    
     1.750961015765339        0.2356642675642552    
     1.756664471842751        0.2322962485425939    
     1.762367927920162        0.2289719852368201    
     1.768071383997574        0.2256909890029692    
     1.773774840074985        0.2224527735490469    
     1.779478296152397        0.2192568550415917    
     1.785181752229808        0.2161027522012382    
     1.790885208307220        0.2129899863933982    
     1.796588664384631        0.2099180817156216    
     1.802292120462043        0.2068865650784083    
     1.807995576539455        0.2038949662822072    
     1.813699032616866        0.2009428180895906    
     1.819402488694278        0.1980296562934847    
     1.825105944771689        0.1951550197808024    
     1.830809400849101        0.1923184505922523    
     1.836512856926512        0.1895194939781111    
     1.842216313003924        0.1867576984504857    
     1.847919769081335        0.1840326158317061    
     1.853623225158747        0.1813438012993838    
     1.859326681236158        0.1786908134279210    
     1.865030137313570        0.1760732142271703    
     1.870733593390981        0.1734905691775827    
     1.876437049468393        0.1709424472625808    
     1.882140505545804        0.1684284209978496    
     1.887843961623216        0.1659480664582086    
     1.893547417700628        0.1635009633014510    
     1.899250873778039        0.1610866947898228    
     1.904954329855451        0.1587048478088282    
     1.910657785932862        0.1563550128840391    
     1.916361242010274        0.1540367841952506    
     1.922064698087685        0.1517497595886581    
     1.927768154165097        0.1494935405867251    
     1.933471610242508        0.1472677323964088    
     1.939175066319920        0.1450719439150847    
     1.944878522397331        0.1429057877348169    
     1.950581978474743        0.1407688801446425    
     1.956285434552154        0.1386608411315206    
     1.961988890629566        0.1365812943792932    
     1.967692346706977        0.1345298672662417    
     1.973395802784389        0.1325061908611480    
     1.979099258861800        0.1305098999177624    
     1.984802714939212        0.1285406328682594    
     1.990506171016623        0.1265980318150139    
     1.996209627094035        0.1246817425213392    
     2.001913083171447        0.1227914144008207    
     2.007616539248858        0.1209267005058888    
     2.013319995326269        0.1190872575149244    
     2.019023451403681        0.1172727457185438    
     2.024726907481093        0.1154828290046822    
     2.030430363558504        0.1137171748431082    
     2.036133819635916        0.1119754542686895    
     2.041837275713327        0.1102573418639711    
     2.047540731790739        0.1085625157409483    
     2.053244187868150        0.1068906575219065    
     2.058947643945562        0.1052414523198997    
     2.064651100022973        0.1036145887181719    
     2.070354556100385        0.1020097587491393    
     2.076058012177796        0.1004266578725472    
     2.081761468255208        0.9886498495341257E-01
     2.087464924332620        0.9732444223906674E-01
     2.093168380410031        0.9580473533584369E-01
     2.098871836487442        0.9430557318528654E-01
     2.104575292564854        0.9282666803973483E-01
     2.110278748642266        0.9136773543783791E-01
     2.115982204719677        0.8992849417931437E-01
     2.121685660797088        0.8850866629954302E-01
     2.127389116874500        0.8710797704360722E-01
     2.133092572951912        0.8572615484035744E-01
     2.138796029029323        0.8436293127585266E-01
     2.144499485106735        0.8301804106667279E-01
     2.150202941184146        0.8169122203298275E-01
     2.155906397261558        0.8038221507120270E-01
     2.161609853338969        0.7909076412680080E-01
     2.167313309416381        0.7781661616656615E-01
     2.173016765493792        0.7655952115086152E-01
     2.178720221571204        0.7531923200571974E-01
     2.184423677648615        0.7409550459465213E-01
     2.190127133726027        0.7288809769065445E-01
     2.195830589803438        0.7169677294778670E-01
     2.201534045880850        0.7052129487281575E-01
     2.207237501958262        0.6936143079677980E-01
     2.212940958035673        0.6821695084635242E-01
     2.218644414113085        0.6708762791545841E-01
     2.224347870190496        0.6597323763654844E-01
     2.230051326267908        0.6487355835200059E-01
     2.235754782345319        0.6378837108550578E-01
     2.241458238422731        0.6271745951333145E-01
     2.247161694500142        0.6166060993586383E-01
     2.252865150577554        0.6061761124889754E-01
     2.258568606654965        0.5958825491511920E-01
     2.264272062732377        0.5857233493547119E-01
     2.269975518809789        0.5756964782084156E-01
     2.275678974887200        0.5657999256355082E-01
     2.281382430964611        0.5560317060902678E-01
     2.287085887042023        0.5463898582755902E-01
     2.292789343119435        0.5368724448601177E-01
     2.298492799196846        0.5274775521988029E-01
     2.304196255274257        0.5182032900520248E-01
     2.309899711351669        0.5090477913068693E-01
     2.315603167429081        0.5000092116993137E-01
     2.321306623506492        0.4910857295377586E-01
     2.327010079583903        0.4822755454267622E-01
     2.332713535661315        0.4735768819942755E-01
     2.338416991738727        0.4649879836178934E-01
     2.344120447816138        0.4565071161536159E-01
     2.349823903893550        0.4481325666660153E-01
     2.355527359970961        0.4398626431587655E-01
     2.361230816048373        0.4316956743090149E-01
     2.366934272125784        0.4236300092008842E-01
     2.372637728203196        0.4156640170617231E-01
     2.378341184280607        0.4077960869999309E-01
     2.384044640358019        0.4000246277433912E-01
     2.389748096435430        0.3923480673817178E-01
     2.395451552512842        0.3847648531080129E-01
     2.401155008590254        0.3772734509633960E-01
     2.406858464667665        0.3698723455832525E-01
     2.412561920745076        0.3625600399442332E-01
     2.418265376822488        0.3553350551151198E-01
     2.423968832899900        0.3481959300073973E-01
     2.429672288977311        0.3411412211286262E-01
     2.435375745054723        0.3341695023376463E-01
     2.441079201132134        0.3272793646006091E-01
     2.446782657209546        0.3204694157508868E-01
     2.452486113286957        0.3137382802488516E-01
     2.458189569364369        0.3070845989444466E-01
     2.463893025441780        0.3005070288414520E-01
     2.469596481519192        0.2940042428637874E-01
     2.475299937596604        0.2875749296228053E-01
     2.481003393674015        0.2812177931883462E-01
     2.486706849751426        0.2749315528597546E-01
     2.492410305828838        0.2687149429397214E-01
     2.498113761906250        0.2625667158886814E-01
     2.503817217983661        0.2564856277007737E-01
     2.509520674061072        0.2504704597713316E-01
     2.515224130138484        0.2445200046166989E-01
     2.520927586215896        0.2386330688020502E-01
     2.526631042293307        0.2328084726178563E-01
     2.532334498370719        0.2270450946085531E-01
     2.538037954448130        0.2213416725491272E-01
     2.543741410525542        0.2156971203840839E-01
     2.549444866602953        0.2101103170156798E-01
     2.555148322680365        0.2045801549157421E-01
     2.560851778757776        0.1991055817476156E-01
     2.566555234835188        0.1936854149315606E-01
     2.572258690912599        0.1883186192133265E-01
     2.577962146990011        0.1830041283080017E-01
     2.583665603067423        0.1777408841440267E-01
     2.589369059144834        0.1725278365305218E-01
     2.595072515222245        0.1673630315995436E-01
     2.600775971299657        0.1622475668831551E-01
     2.606479427377069        0.1571794191526417E-01
     2.612182883454480        0.1521574909910786E-01
     2.617886339531891        0.1471806970595270E-01
     2.623589795609303        0.1422480115425816E-01
     2.629293251686715        0.1373601239481506E-01
     2.634996707764126        0.1325124538025150E-01
     2.640700163841538        0.1277064964593290E-01
     2.646403619918949        0.1229423724954243E-01
     2.652107075996361        0.1182206746136824E-01
     2.657810532073772        0.1135419037698007E-01
     2.663513988151184        0.1089089351314378E-01
     2.669217444228595        0.1043233098197412E-01
     2.674920900306007        0.9978753009692150E-02
     2.680624356383418        0.9530449011270708E-02
     2.686327812460830        0.9087742409656470E-02
     2.692031268538241        0.8650871493363143E-02
     2.697734724615653        0.8220456819909724E-02
     2.703438180693065        0.7796772856866306E-02
     2.709141636770476        0.7380198497348664E-02
     2.714845092847888        0.6971104145051605E-02
     2.720548548925299        0.6569845250772959E-02
     2.726252005002711        0.6176837095841115E-02
     2.731955461080122        0.5792210925516800E-02
     2.737658917157534        0.5416326929537450E-02
     2.743362373234945        0.5049439797241086E-02
     2.749065829312357        0.4691772017815151E-02
     2.754769285389768        0.4343510390979966E-02
     2.760472741467180        0.4004752571867960E-02
     2.766176197544592        0.3675711541597422E-02
     2.771879653622003        0.3356399696367760E-02
     2.777583109699414        0.3046821445165594E-02
     2.783286565776826        0.2746923260633023E-02
     2.788990021854238        0.2456589189027442E-02
     2.794693477931649        0.2175646318103542E-02
     2.800396934009060        0.1903819468254872E-02
     2.806100390086472        0.1640785982407961E-02
     2.811803846163884        0.1386134606152402E-02
     2.817507302241295        0.1139369447072041E-02
     2.823210758318706        0.8999055619327564E-03
     2.828914214396118        0.6659861662613100E-03
     2.834617670473530        0.4389050346088398E-03
     2.840321126550941        0.2171665949111425E-03
     2.846024582628353         0.000000000000000    
  0  6  1  0  2.000000   #orbital l, n, z, is_polarized, population
 500    0.1402833629193970E-01     7.000139809677911     # npts, delta, cutoff
     0.000000000000000        0.4673624290312739    
    0.1402833629193970E-01    0.4675652063385441    
    0.2805667258387940E-01    0.4681734751588048    
    0.4208500887581910E-01    0.4691825176417580    
    0.5611334516775881E-01    0.4705852564209255    
    0.7014168145969851E-01    0.4723718448269550    
    0.8417001775163821E-01    0.4745297278068042    