TACC:  Starting up job 4791485 
TACC:  Starting parallel tasks... 

     Program PWSCF v.7.0 starts on  3Sep2022 at 17:47: 0 

     This program is part of the open-source Quantum ESPRESSO suite
     for quantum simulation of materials; please cite
         "P. Giannozzi et al., J. Phys.:Condens. Matter 21 395502 (2009);
         "P. Giannozzi et al., J. Phys.:Condens. Matter 29 465901 (2017);
         "P. Giannozzi et al., J. Chem. Phys. 152 154105 (2020);
          URL http://www.quantum-espresso.org", 
     in publications or presentations arising from this work. More details at
     http://www.quantum-espresso.org/quote

     Parallel version (MPI & OpenMP), running on      56 processor cores
     Number of MPI processes:                56
     Threads/MPI process:                     1

     MPI processes distributed on     1 nodes
     K-points division:     npool     =       7
     R & G space division:  proc/nbgrp/npool/nimage =       8
     173343 MiB available memory on the printing compute node when the environment starts
 
     Reading input from pw.bands.in

     Current dimensions of program PWSCF are:
     Max number of different atomic species (ntypx) = 10
     Max number of k-points (npk) =  40000
     Max angular momentum in pseudopotentials (lmaxx) =  4

     Atomic positions and unit cell read from directory:
     ./WSe2.save/
     Atomic positions from file used, from input discarded
 
     Message from routine setup:
     using ibrav=0 with symmetry is DISCOURAGED, use correct ibrav instead

     Subspace diagonalization in iterative solution of the eigenvalue problem:
     one sub-group per band group will be used
     ELPA distributed-memory algorithm (size of sub-group:  2*  2 procs)

 
     Parallelization info
     --------------------
     sticks:   dense  smooth     PW     G-vecs:    dense   smooth      PW
     Min          53      53     15                 5953     5953     983
     Max          56      56     16                 5964     5964    1018
     Sum         433     433    121                47651    47651    7929
 
     Using Slab Decomposition
 


     bravais-lattice index     =            0
     lattice parameter (alat)  =       6.2172  a.u.
     unit-cell volume          =    1391.6874 (a.u.)^3
     number of atoms/cell      =            3
     number of atomic types    =            2
     number of electrons       =        46.00
     number of Kohn-Sham states=          100
     kinetic-energy cutoff     =      40.0000  Ry
     charge density cutoff     =     160.0000  Ry
     Exchange-correlation= PBE
                           (   1   4   3   4   0   0   0)
     Non magnetic calculation with spin-orbit


     celldm(1)=   6.217199  celldm(2)=   0.000000  celldm(3)=   0.000000
     celldm(4)=   0.000000  celldm(5)=   0.000000  celldm(6)=   0.000000

     crystal axes: (cart. coord. in units of alat)
               a(1) = (   1.000000   0.000000   0.000000 )  
               a(2) = (   0.500000   0.866025   0.000000 )  
               a(3) = (   0.000000   0.000000   6.686930 )  

     reciprocal axes: (cart. coord. in units 2 pi/alat)
               b(1) = (  1.000000 -0.577350  0.000000 )  
               b(2) = (  0.000000  1.154701  0.000000 )  
               b(3) = (  0.000000  0.000000  0.149545 )  


     PseudoPot. # 1 for W  read from file:
     ./W.upf
     MD5 check sum: 75b1d432d85d028982bb81b068264ebf
     Pseudo is Norm-conserving + core correction, Zval = 14.0
     Generated using ONCVPSP code by D. R. Hamann
     Using radial grid of 1396 points, 14 beta functions with: 
                l(1) =   0
                l(2) =   0
                l(3) =   1
                l(4) =   1
                l(5) =   1
                l(6) =   1
                l(7) =   2
                l(8) =   2
                l(9) =   2
               l(10) =   2
               l(11) =   3
               l(12) =   3
               l(13) =   3
               l(14) =   3

     PseudoPot. # 2 for Se read from file:
     ./Se.upf
     MD5 check sum: cb2cefba1335ec1a0ef320de5a6fd81a
     Pseudo is Norm-conserving + core correction, Zval = 16.0
     Generated using ONCVPSP code by D. R. Hamann
     Using radial grid of 1214 points, 10 beta functions with: 
                l(1) =   0
                l(2) =   0
                l(3) =   1
                l(4) =   1
                l(5) =   1
                l(6) =   1
                l(7) =   2
                l(8) =   2
                l(9) =   2
               l(10) =   2

     atomic species   valence    mass     pseudopotential
        W             14.00   183.84000     W ( 1.00)
        Se            16.00    78.96000     Se( 1.00)

      6 Sym. Ops. (no inversion) found


                                    s                        frac. trans.

      isym =  1     identity                                     

 cryst.   s( 1) = (     1          0          0      )
                  (     0          1          0      )
                  (     0          0          1      )

 cart.    s( 1) = (  1.0000000  0.0000000  0.0000000 )
                  (  0.0000000  1.0000000  0.0000000 )
                  (  0.0000000  0.0000000  1.0000000 )


      isym =  2     120 deg rotation - cryst. axis [0,0,1]       

 cryst.   s( 2) = (    -1          1          0      )
                  (    -1          0          0      )
                  (     0          0          1      )

 cart.    s( 2) = ( -0.5000000 -0.8660254  0.0000000 )
                  (  0.8660254 -0.5000000  0.0000000 )
                  (  0.0000000  0.0000000  1.0000000 )


      isym =  3     120 deg rotation - cryst. axis [0,0,-1]      

 cryst.   s( 3) = (     0         -1          0      )
                  (     1         -1          0      )
                  (     0          0          1      )

 cart.    s( 3) = ( -0.5000000  0.8660254  0.0000000 )
                  ( -0.8660254 -0.5000000  0.0000000 )
                  (  0.0000000  0.0000000  1.0000000 )


      isym =  4     inv. 180 deg rotation - cart. axis [1,0,0]   

 cryst.   s( 4) = (    -1          0          0      )
                  (    -1          1          0      )
                  (     0          0          1      )

 cart.    s( 4) = ( -1.0000000  0.0000000  0.0000000 )
                  (  0.0000000  1.0000000  0.0000000 )
                  (  0.0000000  0.0000000  1.0000000 )


      isym =  5     inv. 180 deg rotation - cryst. axis [0,1,0]  

 cryst.   s( 5) = (     0          1          0      )
                  (     1          0          0      )
                  (     0          0          1      )

 cart.    s( 5) = (  0.5000000  0.8660254  0.0000000 )
                  (  0.8660254 -0.5000000  0.0000000 )
                  (  0.0000000  0.0000000  1.0000000 )


      isym =  6     inv. 180 deg rotation - cryst. axis [1,1,0]  

 cryst.   s( 6) = (     1         -1          0      )
                  (     0         -1          0      )
                  (     0          0          1      )

 cart.    s( 6) = (  0.5000000 -0.8660254  0.0000000 )
                  ( -0.8660254 -0.5000000  0.0000000 )
                  (  0.0000000  0.0000000  1.0000000 )


   Cartesian axes

     site n.     atom                  positions (alat units)
         1           W   tau(   1) = (   0.0000000   0.0000000   1.7901288  )
         2           Se  tau(   2) = (   1.0000000   0.5773503   1.2903416  )
         3           Se  tau(   3) = (   1.0000000   0.5773503   2.2899161  )

   Crystallographic axes

     site n.     atom                  positions (cryst. coord.)
         1           W   tau(   1) = (  0.0000000  0.0000000  0.2677056  )
         2           Se  tau(   2) = (  0.6666667  0.6666667  0.1929647  )
         3           Se  tau(   3) = (  0.6666667  0.6666667  0.3424465  )

     number of k points=    91
                       cart. coord. in units 2pi/alat
        k(    1) = (   0.0000000   0.0000000   0.0000000), wk =   0.0109890
        k(    2) = (   0.0111111   0.0192450   0.0000000), wk =   0.0109890
        k(    3) = (   0.0222222   0.0384900   0.0000000), wk =   0.0109890
        k(    4) = (   0.0333333   0.0577350   0.0000000), wk =   0.0109890
        k(    5) = (   0.0444444   0.0769800   0.0000000), wk =   0.0109890
        k(    6) = (   0.0555556   0.0962250   0.0000000), wk =   0.0109890
        k(    7) = (   0.0666667   0.1154701   0.0000000), wk =   0.0109890
        k(    8) = (   0.0777778   0.1347151   0.0000000), wk =   0.0109890
        k(    9) = (   0.0888889   0.1539601   0.0000000), wk =   0.0109890
        k(   10) = (   0.1000000   0.1732051   0.0000000), wk =   0.0109890
        k(   11) = (   0.1111111   0.1924501   0.0000000), wk =   0.0109890
        k(   12) = (   0.1222222   0.2116951   0.0000000), wk =   0.0109890
        k(   13) = (   0.1333333   0.2309401   0.0000000), wk =   0.0109890
        k(   14) = (   0.1444444   0.2501851   0.0000000), wk =   0.0109890
        k(   15) = (   0.1555556   0.2694301   0.0000000), wk =   0.0109890
        k(   16) = (   0.1666667   0.2886751   0.0000000), wk =   0.0109890
        k(   17) = (   0.1777778   0.3079201   0.0000000), wk =   0.0109890
        k(   18) = (   0.1888889   0.3271652   0.0000000), wk =   0.0109890
        k(   19) = (   0.2000000   0.3464102   0.0000000), wk =   0.0109890
        k(   20) = (   0.2111111   0.3656552   0.0000000), wk =   0.0109890
        k(   21) = (   0.2222222   0.3849002   0.0000000), wk =   0.0109890
        k(   22) = (   0.2333333   0.4041452   0.0000000), wk =   0.0109890
        k(   23) = (   0.2444444   0.4233902   0.0000000), wk =   0.0109890
        k(   24) = (   0.2555556   0.4426352   0.0000000), wk =   0.0109890
        k(   25) = (   0.2666667   0.4618802   0.0000000), wk =   0.0109890
        k(   26) = (   0.2777778   0.4811252   0.0000000), wk =   0.0109890
        k(   27) = (   0.2888889   0.5003702   0.0000000), wk =   0.0109890
        k(   28) = (   0.3000000   0.5196152   0.0000000), wk =   0.0109890
        k(   29) = (   0.3111111   0.5388603   0.0000000), wk =   0.0109890
        k(   30) = (   0.3222222   0.5581053   0.0000000), wk =   0.0109890
        k(   31) = (   0.3333333   0.5773503   0.0000000), wk =   0.0109890
        k(   32) = (   0.3388889   0.5677278   0.0000000), wk =   0.0109890
        k(   33) = (   0.3444444   0.5581053   0.0000000), wk =   0.0109890
        k(   34) = (   0.3500000   0.5484828   0.0000000), wk =   0.0109890
        k(   35) = (   0.3555556   0.5388603   0.0000000), wk =   0.0109890
        k(   36) = (   0.3611111   0.5292377   0.0000000), wk =   0.0109890
        k(   37) = (   0.3666667   0.5196152   0.0000000), wk =   0.0109890
        k(   38) = (   0.3722222   0.5099927   0.0000000), wk =   0.0109890
        k(   39) = (   0.3777778   0.5003702   0.0000000), wk =   0.0109890
        k(   40) = (   0.3833333   0.4907477   0.0000000), wk =   0.0109890
        k(   41) = (   0.3888889   0.4811252   0.0000000), wk =   0.0109890
        k(   42) = (   0.3944444   0.4715027   0.0000000), wk =   0.0109890
        k(   43) = (   0.4000000   0.4618802   0.0000000), wk =   0.0109890
        k(   44) = (   0.4055556   0.4522577   0.0000000), wk =   0.0109890
        k(   45) = (   0.4111111   0.4426352   0.0000000), wk =   0.0109890
        k(   46) = (   0.4166667   0.4330127   0.0000000), wk =   0.0109890
        k(   47) = (   0.4222222   0.4233902   0.0000000), wk =   0.0109890
        k(   48) = (   0.4277778   0.4137677   0.0000000), wk =   0.0109890
        k(   49) = (   0.4333333   0.4041452   0.0000000), wk =   0.0109890
        k(   50) = (   0.4388889   0.3945227   0.0000000), wk =   0.0109890
        k(   51) = (   0.4444444   0.3849002   0.0000000), wk =   0.0109890
        k(   52) = (   0.4500000   0.3752777   0.0000000), wk =   0.0109890
        k(   53) = (   0.4555556   0.3656552   0.0000000), wk =   0.0109890
        k(   54) = (   0.4611111   0.3560327   0.0000000), wk =   0.0109890
        k(   55) = (   0.4666667   0.3464102   0.0000000), wk =   0.0109890
        k(   56) = (   0.4722222   0.3367877   0.0000000), wk =   0.0109890
        k(   57) = (   0.4777778   0.3271652   0.0000000), wk =   0.0109890
        k(   58) = (   0.4833333   0.3175426   0.0000000), wk =   0.0109890
        k(   59) = (   0.4888889   0.3079201   0.0000000), wk =   0.0109890
        k(   60) = (   0.4944444   0.2982976   0.0000000), wk =   0.0109890
        k(   61) = (   0.5000000   0.2886751   0.0000000), wk =   0.0109890
        k(   62) = (   0.4833333   0.2790526   0.0000000), wk =   0.0109890
        k(   63) = (   0.4666667   0.2694301   0.0000000), wk =   0.0109890
        k(   64) = (   0.4500000   0.2598076   0.0000000), wk =   0.0109890
        k(   65) = (   0.4333333   0.2501851   0.0000000), wk =   0.0109890
        k(   66) = (   0.4166667   0.2405626   0.0000000), wk =   0.0109890
        k(   67) = (   0.4000000   0.2309401   0.0000000), wk =   0.0109890
        k(   68) = (   0.3833333   0.2213176   0.0000000), wk =   0.0109890
        k(   69) = (   0.3666667   0.2116951   0.0000000), wk =   0.0109890
        k(   70) = (   0.3500000   0.2020726   0.0000000), wk =   0.0109890
        k(   71) = (   0.3333333   0.1924501   0.0000000), wk =   0.0109890
        k(   72) = (   0.3166667   0.1828276   0.0000000), wk =   0.0109890
        k(   73) = (   0.3000000   0.1732051   0.0000000), wk =   0.0109890
        k(   74) = (   0.2833333   0.1635826   0.0000000), wk =   0.0109890
        k(   75) = (   0.2666667   0.1539601   0.0000000), wk =   0.0109890
        k(   76) = (   0.2500000   0.1443376   0.0000000), wk =   0.0109890
        k(   77) = (   0.2333333   0.1347151   0.0000000), wk =   0.0109890
        k(   78) = (   0.2166667   0.1250926   0.0000000), wk =   0.0109890
        k(   79) = (   0.2000000   0.1154701   0.0000000), wk =   0.0109890
        k(   80) = (   0.1833333   0.1058475   0.0000000), wk =   0.0109890
        k(   81) = (   0.1666667   0.0962250   0.0000000), wk =   0.0109890
        k(   82) = (   0.1500000   0.0866025   0.0000000), wk =   0.0109890
        k(   83) = (   0.1333333   0.0769800   0.0000000), wk =   0.0109890
        k(   84) = (   0.1166667   0.0673575   0.0000000), wk =   0.0109890
        k(   85) = (   0.1000000   0.0577350   0.0000000), wk =   0.0109890
        k(   86) = (   0.0833333   0.0481125   0.0000000), wk =   0.0109890
        k(   87) = (   0.0666667   0.0384900   0.0000000), wk =   0.0109890
        k(   88) = (   0.0500000   0.0288675   0.0000000), wk =   0.0109890
        k(   89) = (   0.0333333   0.0192450   0.0000000), wk =   0.0109890
        k(   90) = (   0.0166667   0.0096225   0.0000000), wk =   0.0109890
        k(   91) = (   0.0000000   0.0000000   0.0000000), wk =   0.0109890

                       cryst. coord.
        k(    1) = (   0.0000000   0.0000000   0.0000000), wk =   0.0109890
        k(    2) = (   0.0111111   0.0222222   0.0000000), wk =   0.0109890
        k(    3) = (   0.0222222   0.0444444   0.0000000), wk =   0.0109890
        k(    4) = (   0.0333333   0.0666667   0.0000000), wk =   0.0109890
        k(    5) = (   0.0444444   0.0888889   0.0000000), wk =   0.0109890
        k(    6) = (   0.0555556   0.1111111   0.0000000), wk =   0.0109890
        k(    7) = (   0.0666667   0.1333333   0.0000000), wk =   0.0109890
        k(    8) = (   0.0777778   0.1555556   0.0000000), wk =   0.0109890
        k(    9) = (   0.0888889   0.1777778   0.0000000), wk =   0.0109890
        k(   10) = (   0.1000000   0.2000000   0.0000000), wk =   0.0109890
        k(   11) = (   0.1111111   0.2222222   0.0000000), wk =   0.0109890
        k(   12) = (   0.1222222   0.2444444   0.0000000), wk =   0.0109890
        k(   13) = (   0.1333333   0.2666667   0.0000000), wk =   0.0109890
        k(   14) = (   0.1444444   0.2888889   0.0000000), wk =   0.0109890
        k(   15) = (   0.1555556   0.3111111   0.0000000), wk =   0.0109890
        k(   16) = (   0.1666667   0.3333333   0.0000000), wk =   0.0109890
        k(   17) = (   0.1777778   0.3555556   0.0000000), wk =   0.0109890
        k(   18) = (   0.1888889   0.3777778   0.0000000), wk =   0.0109890
        k(   19) = (   0.2000000   0.4000000   0.0000000), wk =   0.0109890
        k(   20) = (   0.2111111   0.4222222   0.0000000), wk =   0.0109890
        k(   21) = (   0.2222222   0.4444444   0.0000000), wk =   0.0109890
        k(   22) = (   0.2333333   0.4666667   0.0000000), wk =   0.0109890
        k(   23) = (   0.2444444   0.4888889   0.0000000), wk =   0.0109890
        k(   24) = (   0.2555556   0.5111111   0.0000000), wk =   0.0109890
        k(   25) = (   0.2666667   0.5333333   0.0000000), wk =   0.0109890
        k(   26) = (   0.2777778   0.5555556   0.0000000), wk =   0.0109890
        k(   27) = (   0.2888889   0.5777778   0.0000000), wk =   0.0109890
        k(   28) = (   0.3000000   0.6000000   0.0000000), wk =   0.0109890
        k(   29) = (   0.3111111   0.6222222   0.0000000), wk =   0.0109890
        k(   30) = (   0.3222222   0.6444444   0.0000000), wk =   0.0109890
        k(   31) = (   0.3333333   0.6666667   0.0000000), wk =   0.0109890
        k(   32) = (   0.3388889   0.6611111   0.0000000), wk =   0.0109890
        k(   33) = (   0.3444444   0.6555556   0.0000000), wk =   0.0109890
        k(   34) = (   0.3500000   0.6500000   0.0000000), wk =   0.0109890
        k(   35) = (   0.3555556   0.6444444   0.0000000), wk =   0.0109890
        k(   36) = (   0.3611111   0.6388889   0.0000000), wk =   0.0109890
        k(   37) = (   0.3666667   0.6333333   0.0000000), wk =   0.0109890
        k(   38) = (   0.3722222   0.6277778   0.0000000), wk =   0.0109890
        k(   39) = (   0.3777778   0.6222222   0.0000000), wk =   0.0109890
        k(   40) = (   0.3833333   0.6166667   0.0000000), wk =   0.0109890
        k(   41) = (   0.3888889   0.6111111   0.0000000), wk =   0.0109890
        k(   42) = (   0.3944444   0.6055556   0.0000000), wk =   0.0109890
        k(   43) = (   0.4000000   0.6000000   0.0000000), wk =   0.0109890
        k(   44) = (   0.4055556   0.5944444   0.0000000), wk =   0.0109890
        k(   45) = (   0.4111111   0.5888889   0.0000000), wk =   0.0109890
        k(   46) = (   0.4166667   0.5833333   0.0000000), wk =   0.0109890
        k(   47) = (   0.4222222   0.5777778   0.0000000), wk =   0.0109890
        k(   48) = (   0.4277778   0.5722222   0.0000000), wk =   0.0109890
        k(   49) = (   0.4333333   0.5666667   0.0000000), wk =   0.0109890
        k(   50) = (   0.4388889   0.5611111   0.0000000), wk =   0.0109890
        k(   51) = (   0.4444444   0.5555556   0.0000000), wk =   0.0109890
        k(   52) = (   0.4500000   0.5500000   0.0000000), wk =   0.0109890
        k(   53) = (   0.4555556   0.5444444   0.0000000), wk =   0.0109890
        k(   54) = (   0.4611111   0.5388889   0.0000000), wk =   0.0109890
        k(   55) = (   0.4666667   0.5333333   0.0000000), wk =   0.0109890
        k(   56) = (   0.4722222   0.5277778   0.0000000), wk =   0.0109890
        k(   57) = (   0.4777778   0.5222222   0.0000000), wk =   0.0109890
        k(   58) = (   0.4833333   0.5166667   0.0000000), wk =   0.0109890
        k(   59) = (   0.4888889   0.5111111   0.0000000), wk =   0.0109890
        k(   60) = (   0.4944444   0.5055556   0.0000000), wk =   0.0109890
        k(   61) = (   0.5000000   0.5000000   0.0000000), wk =   0.0109890
        k(   62) = (   0.4833333   0.4833333   0.0000000), wk =   0.0109890
        k(   63) = (   0.4666667   0.4666667   0.0000000), wk =   0.0109890
        k(   64) = (   0.4500000   0.4500000   0.0000000), wk =   0.0109890
        k(   65) = (   0.4333333   0.4333333   0.0000000), wk =   0.0109890
        k(   66) = (   0.4166667   0.4166667   0.0000000), wk =   0.0109890
        k(   67) = (   0.4000000   0.4000000   0.0000000), wk =   0.0109890
        k(   68) = (   0.3833333   0.3833333   0.0000000), wk =   0.0109890
        k(   69) = (   0.3666667   0.3666667   0.0000000), wk =   0.0109890
        k(   70) = (   0.3500000   0.3500000   0.0000000), wk =   0.0109890
        k(   71) = (   0.3333333   0.3333333   0.0000000), wk =   0.0109890
        k(   72) = (   0.3166667   0.3166667   0.0000000), wk =   0.0109890
        k(   73) = (   0.3000000   0.3000000   0.0000000), wk =   0.0109890
        k(   74) = (   0.2833333   0.2833333   0.0000000), wk =   0.0109890
        k(   75) = (   0.2666667   0.2666667   0.0000000), wk =   0.0109890
        k(   76) = (   0.2500000   0.2500000   0.0000000), wk =   0.0109890
        k(   77) = (   0.2333333   0.2333333   0.0000000), wk =   0.0109890
        k(   78) = (   0.2166667   0.2166667   0.0000000), wk =   0.0109890
        k(   79) = (   0.2000000   0.2000000   0.0000000), wk =   0.0109890
        k(   80) = (   0.1833333   0.1833333   0.0000000), wk =   0.0109890
        k(   81) = (   0.1666667   0.1666667   0.0000000), wk =   0.0109890
        k(   82) = (   0.1500000   0.1500000   0.0000000), wk =   0.0109890
        k(   83) = (   0.1333333   0.1333333   0.0000000), wk =   0.0109890
        k(   84) = (   0.1166667   0.1166667   0.0000000), wk =   0.0109890
        k(   85) = (   0.1000000   0.1000000   0.0000000), wk =   0.0109890
        k(   86) = (   0.0833333   0.0833333   0.0000000), wk =   0.0109890
        k(   87) = (   0.0666667   0.0666667   0.0000000), wk =   0.0109890
        k(   88) = (   0.0500000   0.0500000   0.0000000), wk =   0.0109890
        k(   89) = (   0.0333333   0.0333333   0.0000000), wk =   0.0109890
        k(   90) = (   0.0166667   0.0166667   0.0000000), wk =   0.0109890
        k(   91) = (   0.0000000   0.0000000   0.0000000), wk =   0.0109890

     Dense  grid:    47651 G-vectors     FFT dimensions: (  25,  25, 180)

     Dynamical RAM for                 wfc:       2.27 MB

     Dynamical RAM for     wfc (w. buffer):       2.27 MB

     Dynamical RAM for           str. fact:       0.18 MB

     Dynamical RAM for           local pot:       0.00 MB

     Dynamical RAM for          nlocal pot:       1.47 MB

     Dynamical RAM for                qrad:      14.22 MB

     Dynamical RAM for          rho,v,vnew:       2.41 MB

     Dynamical RAM for           G-vectors:       0.39 MB

     Dynamical RAM for          h,s,v(r/c):       1.83 MB

     Dynamical RAM for          <psi|beta>:       0.40 MB

     Dynamical RAM for                 psi:       9.07 MB

     Dynamical RAM for                hpsi:       9.07 MB

     Dynamical RAM for      wfcinit/wfcrot:       3.63 MB

     Estimated static dynamical RAM per process >      22.09 MB

     Estimated max dynamical RAM per process >      42.45 MB

     Estimated total dynamical RAM >       2.32 GB

     The potential is recalculated from file :
     ./WSe2.save/charge-density

     Starting wfcs are   56 randomized atomic wfcs +   44 random wfcs

     Band Structure Calculation
     Davidson diagonalization with overlap

     Computing kpt #:     1  of    13 on this pool
     total cpu time spent up to now is        2.9 secs

     Computing kpt #:     2  of    13 on this pool
     total cpu time spent up to now is        5.3 secs

     Computing kpt #:     3  of    13 on this pool
     total cpu time spent up to now is        7.6 secs

     Computing kpt #:     4  of    13 on this pool
     total cpu time spent up to now is        9.9 secs

     Computing kpt #:     5  of    13 on this pool
     total cpu time spent up to now is       12.1 secs

     Computing kpt #:     6  of    13 on this pool
     total cpu time spent up to now is       14.4 secs

     Computing kpt #:     7  of    13 on this pool
     total cpu time spent up to now is       16.5 secs

     Computing kpt #:     8  of    13 on this pool
     total cpu time spent up to now is       18.5 secs

     Computing kpt #:     9  of    13 on this pool
     total cpu time spent up to now is       20.7 secs

     Computing kpt #:    10  of    13 on this pool
     total cpu time spent up to now is       23.3 secs

     Computing kpt #:    11  of    13 on this pool
     total cpu time spent up to now is       25.5 secs

     Computing kpt #:    12  of    13 on this pool
     total cpu time spent up to now is       27.5 secs

     Computing kpt #:    13  of    13 on this pool
     total cpu time spent up to now is       29.3 secs

     ethr =  2.17E-09,  avg # of iterations = 26.0

     total cpu time spent up to now is       29.3 secs

     End of band structure calculation

          k = 0.0000 0.0000 0.0000 (  5987 PWs)   bands (ev):

   -73.8806 -73.8806 -48.7653 -48.7653 -48.6812 -48.6812 -48.6272 -48.6272
   -48.5333 -48.5333 -47.9702 -47.9702 -47.8467 -47.8467 -47.7866 -47.7866
   -47.7821 -47.7821 -47.7033 -47.7033 -47.6700 -47.6700 -45.2714 -45.2714
   -35.5142 -35.5142 -35.3957 -35.3957 -15.2437 -15.2437 -13.9389 -13.9389
    -6.2536  -6.2536  -2.6430  -2.6430  -2.5254  -2.5254  -2.0898  -2.0898
    -1.5735  -1.5735  -1.1663  -1.1663  -0.1493  -0.1493   2.7858   2.7858
     3.0224   3.0224   3.0808   3.0808   3.2944   3.2944   4.2405   4.2405
     4.7911   4.7911   4.9312   4.9312   5.6241   5.6241   6.1710   6.1710
     7.2248   7.2248   8.2437   8.2437   8.7301   8.7301   9.7057   9.7057
    11.5460  11.5460  11.7496  11.7496  11.9822  11.9822  12.2321  12.2321
    12.9425  12.9425  14.3147  14.3147  14.3593  14.3593  14.3903  14.3903
    15.3520  15.3520  15.6539  15.6539  17.5192  17.5192  17.8947  17.8947
    18.1509  18.1509  18.1607  18.1607

          k = 0.0111 0.0192 0.0000 (  5981 PWs)   bands (ev):

   -73.8802 -73.8802 -48.7826 -48.7815 -48.5985 -48.5976 -48.5898 -48.5892
   -48.5476 -48.5471 -47.9853 -47.9843 -47.7679 -47.7644 -47.7494 -47.7446
   -47.7296 -47.7235 -47.7187 -47.7116 -47.6882 -47.6856 -45.2715 -45.2714
   -35.5142 -35.5141 -35.3959 -35.3958 -15.2383 -15.2382 -13.9365 -13.9364
    -6.2464  -6.2464  -2.6502  -2.6495  -2.5322  -2.5318  -2.1096  -2.1091
    -1.5700  -1.5682  -1.1703  -1.1681  -0.1519  -0.1517   2.7846   2.7861
     3.0045   3.0094   3.0644   3.0693   3.2825   3.2835   4.2708   4.2711
     4.7988   4.7990   4.9446   4.9447   5.6370   5.6370   6.1787   6.1787
     7.2332   7.2332   8.2695   8.2695   8.7496   8.7496   9.7119   9.7119
    11.5042  11.5066  11.7548  11.7553  11.9114  11.9175  12.3451  12.3478
    12.9518  12.9521  13.9562  13.9570  14.3462  14.3483  14.7832  14.7844
    15.3708  15.3709  15.6576  15.6578  17.3405  17.3409  17.8871  17.8914
    18.1618  18.1627  18.1656  18.1731

          k = 0.0222 0.0385 0.0000 (  5973 PWs)   bands (ev):

   -73.8797 -73.8797 -48.7321 -48.7316 -48.6023 -48.5989 -48.5544 -48.5492
   -48.5191 -48.5167 -47.9298 -47.9293 -47.7678 -47.7659 -47.7413 -47.7347
   -47.7186 -47.7088 -47.6716 -47.6691 -47.6247 -47.6214 -45.2709 -45.2708
   -35.5137 -35.5137 -35.3970 -35.3969 -15.2221 -15.2219 -13.9291 -13.9289
    -6.2249  -6.2248  -2.6816  -2.6768  -2.5433  -2.5420  -2.1640  -2.1599
    -1.5689  -1.5583  -1.1844  -1.1717  -0.1601  -0.1595   2.7706   2.7802
     2.9434   2.9666   3.0236   3.0503   3.2527   3.2635   4.3505   4.3514
     4.8218   4.8221   4.9854   4.9855   5.6766   5.6767   6.2014   6.2014
     7.2586   7.2587   8.3376   8.3376   8.8059   8.8060   9.7303   9.7303
    11.3615  11.3886  11.7692  11.7705  11.8750  11.9129  12.5292  12.5347
    12.9796  12.9818  13.5586  13.5596  14.3494  14.3535  15.1754  15.1773
    15.4270  15.4275  15.6720  15.6739  17.0402  17.0426  17.7885  17.8287
    18.0632  18.0998  18.1903  18.1940

          k = 0.0333 0.0577 0.0000 (  5971 PWs)   bands (ev):

   -73.8794 -73.8794 -48.6709 -48.6706 -48.6214 -48.6209 -48.5767 -48.5760
   -48.5144 -48.5134 -47.8627 -47.8591 -47.7903 -47.7883 -47.7629 -47.7599
   -47.7220 -47.7183 -47.6578 -47.6541 -47.6045 -47.6039 -45.2714 -45.2711
   -35.5139 -35.5138 -35.4003 -35.4002 -15.1952 -15.1948 -13.9168 -13.9166
    -6.1894  -6.1892  -2.7513  -2.7402  -2.5463  -2.5436  -2.2425  -2.2261
    -1.5866  -1.5542  -1.2088  -1.1689  -0.1749  -0.1738   2.7324   2.7439
     2.8642   2.8787   2.9855   3.0343   3.2211   3.2597   4.4562   4.4580
     4.8593   4.8597   5.0533   5.0536   5.7450   5.7450   6.2385   6.2385
     7.3007   7.3010   8.4306   8.4307   8.9117   8.9117   9.7595   9.7597
    11.1610  11.2107  11.7960  11.7971  11.9151  11.9817  12.7055  12.7058
    13.0200  13.0218  13.1787  13.1880  14.3522  14.3576  15.4505  15.4521
    15.5221  15.5238  15.7517  15.7607  16.7774  16.7815  17.5111  17.5847
    17.9786  18.0787  18.1843  18.1986

          k = 0.0444 0.0770 0.0000 (  5969 PWs)   bands (ev):

   -73.8790 -73.8790 -48.6436 -48.6412 -48.6298 -48.6246 -48.6105 -48.6069
   -48.4696 -48.4681 -47.8211 -47.8113 -47.8007 -47.7933 -47.7765 -47.7735
   -47.7475 -47.7441 -47.6543 -47.6521 -47.5685 -47.5683 -45.2723 -45.2722
   -35.5144 -35.5144 -35.4049 -35.4047 -15.1579 -15.1571 -13.8998 -13.8995
    -6.1402  -6.1396  -2.8569  -2.8392  -2.5598  -2.5396  -2.3282  -2.2832
    -1.6333  -1.5708  -1.2358  -1.1560  -0.1970  -0.1952   2.6508   2.6719
     2.7618   2.8033   2.9445   3.0218   3.2058   3.2896   4.5699   4.5723
     4.9110   4.9114   5.1462   5.1466   5.8454   5.8454   6.2893   6.2894
     7.3600   7.3607   8.5280   8.5283   9.0778   9.0785   9.7986   9.7988
    10.9446  11.0131  11.8336  11.8343  11.9948  12.0870  12.7558  12.7702
    12.8799  12.8923  13.1071  13.1472  14.3421  14.3476  15.4919  15.4923
    15.6405  15.6437  15.9674  15.9805  16.6459  16.6612  17.1552  17.2418
    17.7569  17.8582  18.2302  18.2620

          k = 0.0556 0.0962 0.0000 (  5967 PWs)   bands (ev):

   -73.8786 -73.8786 -48.6739 -48.6737 -48.5964 -48.5958 -48.5903 -48.5899
   -48.4498 -48.4485 -47.8245 -47.8222 -47.8089 -47.8066 -47.7679 -47.7667
   -47.7166 -47.7129 -47.6392 -47.6357 -47.5692 -47.5686 -45.2731 -45.2730
   -35.5150 -35.5148 -35.4108 -35.4101 -15.1106 -15.1090 -13.8781 -13.8777
    -6.0780  -6.0768  -2.9895  -2.9651  -2.6082  -2.5646  -2.3860  -2.3029
    -1.7113  -1.6230  -1.2564  -1.1360  -0.2278  -0.2259   2.5296   2.5973
     2.6375   2.7462   2.8908   2.9970   3.2294   3.3527   4.6825   4.6853
     4.9761   4.9766   5.2572   5.2579   5.9796   5.9801   6.3533   6.3534
     7.4366   7.4378   8.6209   8.6215   9.2943   9.2975   9.8446   9.8448
    10.7393  10.8243  11.8772  11.8777  12.0740  12.1908  12.4391  12.4482
    12.9824  13.0218  13.1893  13.2499  14.3097  14.3136  15.4335  15.4371
    15.7752  15.7836  16.1007  16.1096  16.5697  16.6852  16.9341  16.9433
    17.5008  17.6329  18.3325  18.4102

          k = 0.0667 0.1155 0.0000 (  5961 PWs)   bands (ev):

   -73.8779 -73.8779 -48.6737 -48.6735 -48.5790 -48.5769 -48.5598 -48.5580
   -48.4139 -48.4137 -47.8247 -47.8230 -47.8109 -47.8100 -47.7300 -47.7297
   -47.6645 -47.6621 -47.6033 -47.6009 -47.5503 -47.5486 -45.2742 -45.2738
   -35.5156 -35.5151 -35.4176 -35.4162 -15.0537 -15.0509 -13.8519 -13.8514
    -6.0031  -6.0011  -3.1443  -3.1138  -2.6931  -2.6487  -2.3832  -2.2811
    -1.8176  -1.7161  -1.2665  -1.1141  -0.2682  -0.2671   2.4081   2.4973
     2.5409   2.6867   2.8254   2.9521   3.2945   3.4416   4.7936   4.7966
     5.0545   5.0550   5.3787   5.3795   6.1471   6.1487   6.4301   6.4303
     7.5315   7.5334   8.7121   8.7130   9.5423   9.5538   9.8948   9.8971
    10.5622  10.6589  11.9128  11.9128  12.0663  12.1340  12.2183  12.3004
    13.0979  13.1571  13.2957  13.3674  14.2322  14.2327  15.3746  15.3818
    15.8573  15.8985  16.1610  16.1712  16.3026  16.4201  17.0292  17.0783
    17.2886  17.4219  18.4453  18.5081

          k = 0.0778 0.1347 0.0000 (  5943 PWs)   bands (ev):

   -73.8764 -73.8764 -48.6250 -48.6246 -48.5380 -48.5352 -48.4987 -48.4963
   -48.3616 -48.3613 -47.7818 -47.7805 -47.7702 -47.7678 -47.7030 -47.7016
   -47.5960 -47.5948 -47.4972 -47.4967 -47.3918 -47.3906 -45.2758 -45.2746
   -35.5166 -35.5158 -35.4245 -35.4220 -14.9875 -14.9830 -13.8215 -13.8207
    -5.9165  -5.9133  -3.3153  -3.2800  -2.7967  -2.7619  -2.3488  -2.2347
    -1.9478  -1.8451  -1.2700  -1.0942  -0.3230  -0.3177   2.2972   2.3784
     2.4796   2.6296   2.7542   2.8968   3.3876   3.5477   4.9061   4.9092
     5.1461   5.1466   5.5050   5.5059   6.3397   6.3435   6.5195   6.5198
     7.6439   7.6463   8.8059   8.8072   9.7657   9.8056   9.9554   9.9619
    10.4372  10.5272  11.7807  11.8022  12.0114  12.0347  12.2358  12.3720
    13.2118  13.2608  13.4562  13.5049  14.1021  14.1092  15.3459  15.3685
    15.6665  15.7768  16.2454  16.2554  16.2676  16.2742  17.0123  17.1957
    17.2768  17.2876  18.5344  18.5734

          k = 0.0889 0.1540 0.0000 (  5937 PWs)   bands (ev):

   -73.8757 -73.8757 -48.5906 -48.5899 -48.5265 -48.5247 -48.4712 -48.4697
   -48.3672 -48.3668 -47.7801 -47.7780 -47.7098 -47.7082 -47.6340 -47.6320
   -47.5616 -47.5606 -47.5099 -47.5088 -47.4139 -47.4139 -45.2774 -45.2753
   -35.5184 -35.5173 -35.4325 -35.4289 -14.9128 -14.9062 -13.7871 -13.7861
    -5.8207  -5.8156  -3.4972  -3.4588  -2.9078  -2.8844  -2.3048  -2.1784
    -2.0986  -2.0013  -1.2726  -1.0795  -0.3925  -0.3774   2.2018   2.2651
     2.4350   2.5773   2.6833   2.8403   3.4960   3.6629   5.0226   5.0262
     5.2505   5.2510   5.6346   5.6357   6.5481   6.5552   6.6216   6.6224
     7.7733   7.7762   8.9049   8.9066   9.8228   9.9124  10.0956  10.1337
    10.4066  10.4457  11.5578  11.5899  12.0480  12.0774  12.2512  12.4018
    13.3119  13.3276  13.6170  13.6391  13.9400  13.9536  15.1641  15.2527
    15.5407  15.5625  16.3189  16.3400  16.3768  16.3925  16.9206  17.0931
    17.2797  17.2882  18.5626  18.5724

          k = 0.1000 0.1732 0.0000 (  5933 PWs)   bands (ev):

   -73.8750 -73.8750 -48.5572 -48.5559 -48.4791 -48.4726 -48.4491 -48.4410
   -48.3833 -48.3806 -47.7031 -47.7005 -47.6907 -47.6881 -47.6346 -47.6335
   -47.5618 -47.5590 -47.4989 -47.4943 -47.4862 -47.4810 -45.2800 -45.2771
   -35.5209 -35.5194 -35.4416 -35.4368 -14.8301 -14.8209 -13.7490 -13.7477
    -5.7161  -5.7085  -3.6849  -3.6457  -3.0203  -3.0095  -2.2749  -2.2505
    -2.2030  -2.0933  -1.2780  -1.0713  -0.4753  -0.4441   2.1245   2.1611
     2.4071   2.5310   2.6196   2.7910   3.6141   3.7840   5.1460   5.1501
     5.3677   5.3682   5.7685   5.7701   6.7307   6.7313   6.7667   6.7793
     7.9176   7.9207   9.0100   9.0123   9.7541   9.9018  10.2335  10.3344
    10.4342  10.4786  11.4034  11.4494  12.0690  12.1301  12.2519  12.4002
    13.3684  13.3759  13.6597  13.7483  13.8106  13.8638  14.8790  14.8982
    15.6143  15.6165  16.3608  16.4358  16.4625  16.4975  16.9568  17.0562
    17.1440  17.1642  18.2331  18.2580

          k = 0.1111 0.1925 0.0000 (  5925 PWs)   bands (ev):

   -73.8740 -73.8740 -48.5367 -48.5363 -48.4676 -48.4663 -48.4345 -48.4335
   -48.3006 -48.3002 -47.7006 -47.6998 -47.6625 -47.6618 -47.6077 -47.6052
   -47.5794 -47.5774 -47.4622 -47.4613 -47.4283 -47.4271 -45.2820 -45.2785
   -35.5234 -35.5219 -35.4505 -35.4444 -14.7403 -14.7276 -13.7076 -13.7058
    -5.6037  -5.5926  -3.8742  -3.8365  -3.1364  -3.1324  -2.4425  -2.3911
    -2.2197  -2.0370  -1.2892  -1.0713  -0.5678  -0.5134   2.0635   2.0651
     2.3919   2.4889   2.5748   2.7576   3.7364   3.9063   5.2778   5.2827
     5.4974   5.4977   5.9086   5.9108   6.8576   6.8580   6.9749   6.9943
     8.0704   8.0736   9.1205   9.1239   9.6643   9.8658  10.3323  10.4473
    10.4679  10.5375  11.3603  11.4272  12.0535  12.1784  12.2592  12.3827
    13.3441  13.3917  13.6353  13.6646  13.7088  13.8588  14.6548  14.7604
    15.7086  15.7137  16.3228  16.4822  16.5456  16.5513  16.9135  16.9508
    17.1484  17.1748  17.7788  17.7870

          k = 0.1222 0.2117 0.0000 (  5939 PWs)   bands (ev):

   -73.8744 -73.8744 -48.5648 -48.5645 -48.5607 -48.5588 -48.4517 -48.4503
   -48.3848 -48.3843 -47.7559 -47.7531 -47.7157 -47.7085 -47.6661 -47.6625
   -47.6173 -47.6102 -47.5372 -47.5366 -47.5310 -47.5273 -45.2856 -45.2812
   -35.5285 -35.5272 -35.4602 -35.4532 -14.6442 -14.6274 -13.6632 -13.6610
    -5.4876  -5.4716  -4.0616  -4.0283  -3.2664  -3.2442  -2.6215  -2.5948
    -2.1920  -1.9791  -1.3082  -1.0810  -0.6660  -0.5805   1.9733   2.0173
     2.3856   2.4523   2.5542   2.7425   3.8585   4.0256   5.4187   5.4246
     5.6388   5.6392   6.0561   6.0590   6.9936   6.9944   7.1731   7.2010
     8.2151   8.2210   9.2339   9.2391   9.5822   9.8252  10.3874  10.4251
    10.5353  10.5367  11.4176  11.5095  12.0134  12.2239  12.2719  12.3546
    13.1432  13.3473  13.5716  13.5831  13.6568  13.6622  14.6943  14.8295
    15.7429  15.7511  16.2527  16.3966  16.6018  16.6075  16.7814  16.8304
    17.2802  17.3050  17.3553  17.3706

          k = 0.1333 0.2309 0.0000 (  5946 PWs)   bands (ev):

   -73.8743 -73.8743 -48.6104 -48.6089 -48.5799 -48.5783 -48.4951 -48.4938
   -48.4329 -48.4324 -47.7980 -47.7944 -47.7480 -47.7365 -47.6672 -47.6619
   -47.6465 -47.6328 -47.6072 -47.6033 -47.5485 -47.5459 -45.2884 -45.2839
   -35.5337 -35.5331 -35.4684 -35.4612 -14.5427 -14.5211 -13.6164 -13.6135
    -5.3706  -5.3473  -4.2413  -4.2162  -3.4018  -3.3565  -2.7993  -2.7949
    -2.1827  -1.9348  -1.3359  -1.1018  -0.7615  -0.6375   1.8882   1.9801
     2.3895   2.4277   2.5615   2.7478   3.9783   4.1401   5.5692   5.5767
     5.7917   5.7927   6.2125   6.2162   7.1402   7.1414   7.3544   7.3929
     8.3267   8.3448   9.3474   9.3562   9.5480   9.8140  10.3368  10.3424
    10.6017  10.6378  11.4782  11.6204  11.9782  12.2751  12.2936  12.3389
    12.8538  13.0627  13.4753  13.5296  13.6199  13.6960  14.8570  14.9781
    15.6221  15.6283  16.1464  16.2614  16.6218  16.6241  16.8019  16.8349
    16.8718  16.8830  16.9913  17.0010

          k = 0.1444 0.2502 0.0000 (  5946 PWs)   bands (ev):

   -73.8739 -73.8739 -48.6352 -48.6325 -48.5662 -48.5645 -48.5190 -48.5185
   -48.4245 -48.4223 -47.8041 -47.8000 -47.7455 -47.7296 -47.7128 -47.7047
   -47.6583 -47.6492 -47.5930 -47.5874 -47.5561 -47.5528 -45.2906 -45.2856
   -35.5401 -35.5395 -35.4745 -35.4673 -14.4368 -14.4096 -13.5675 -13.5639
    -5.2581  -5.2236  -4.4069  -4.3952  -3.5466  -3.4741  -2.9931  -2.9533
    -2.1971  -1.9146  -1.3725  -1.1355  -0.8438  -0.6765   1.8127   1.9511
     2.4056   2.4207   2.5930   2.7712   4.0923   4.2465   5.7294   5.7389
     5.9556   5.9575   6.3783   6.3833   7.2970   7.2988   7.5131   7.5649
     8.3819   8.4303   9.4588   9.4715   9.5902   9.8517  10.2511  10.2680
    10.7104  10.7478  11.4406  11.6966  11.9559  12.2639  12.3554  12.4247
    12.6034  12.6614  13.4820  13.5408  13.6206  13.7269  15.0033  15.1025
    15.3681  15.3706  15.9952  16.0873  16.4437  16.4512  16.5192  16.5211
    16.6304  16.6525  16.7780  16.7828

          k = 0.1556 0.2694 0.0000 (  5946 PWs)   bands (ev):

   -73.8734 -73.8734 -48.6280 -48.6248 -48.6009 -48.5979 -48.5312 -48.5302
   -48.4191 -48.4172 -47.8041 -47.7998 -47.7761 -47.7610 -47.7224 -47.7168
   -47.6562 -47.6469 -47.5956 -47.5914 -47.5531 -47.5484 -45.2939 -45.2877
   -35.5486 -35.5462 -35.4801 -35.4731 -14.3276 -14.2940 -13.5170 -13.5128
    -5.1634  -5.1106  -4.5553  -4.5452  -3.7038  -3.6056  -3.1635  -3.0898
    -2.2392  -1.9294  -1.4170  -1.1832  -0.9050  -0.6949   1.7510   1.9309
     2.4310   2.4338   2.6416   2.8088   4.1979   4.3415   5.8989   5.9113
     6.1299   6.1329   6.5544   6.5607   7.4631   7.4659   7.6355   7.7018
     8.3893   8.4814   9.5643   9.5781   9.6964   9.9182  10.2025  10.2195
    10.8313  10.8538  11.3007  11.7287  11.9081  12.0849  12.4011  12.4101
    12.5228  12.5833  13.5041  13.6000  13.6449  13.7432  14.9769  15.0078
    15.1570  15.1777  15.8194  15.8910  16.0393  16.0461  16.1963  16.1999
    16.3053  16.3350  16.5896  16.5951

          k = 0.1667 0.2887 0.0000 (  5954 PWs)   bands (ev):

   -73.8734 -73.8734 -48.6483 -48.6416 -48.6230 -48.6124 -48.5572 -48.5495
   -48.4991 -48.4949 -47.8176 -47.8118 -47.8018 -47.7863 -47.7363 -47.7316
   -47.7169 -47.7120 -47.6411 -47.6339 -47.6213 -47.6154 -45.2968 -45.2897
   -35.5581 -35.5536 -35.4849 -35.4784 -14.2164 -14.1755 -13.4656 -13.4606
    -5.1140  -5.0372  -4.6676  -4.6287  -3.8738  -3.7591  -3.2992  -3.2010
    -2.3089  -1.9857  -1.4668  -1.2439  -0.9406  -0.6936   1.7098   1.9238
     2.4574   2.4723   2.7015   2.8560   4.2928   4.4226   6.0771   6.0935
     6.3140   6.3183   6.7409   6.7488   7.6366   7.6418   7.7025   7.7715
     8.4022   8.5276   9.6513   9.6657   9.8404   9.9598  10.2103  10.2137
    10.8998  10.9565  11.1823  11.7137  11.7415  11.8557  12.3717  12.3852
    12.6638  12.7508  13.5005  13.6840  13.7058  13.7432  14.6621  14.6682
    15.0429  15.0495  15.5917  15.5922  15.7144  15.7704  15.8432  15.8505
    16.0330  16.0888  16.2500  16.2523

          k = 0.1778 0.3079 0.0000 (  5962 PWs)   bands (ev):

   -73.8734 -73.8734 -48.7358 -48.7323 -48.6639 -48.6576 -48.5765 -48.5678
   -48.5025 -48.4985 -47.9024 -47.8998 -47.8198 -47.8126 -47.7915 -47.7834
   -47.7745 -47.7608 -47.6684 -47.6584 -47.6010 -47.5961 -45.2998 -45.2917
   -35.5682 -35.5611 -35.4889 -35.4833 -14.1045 -14.0556 -13.4138 -13.4079
    -5.1395  -5.0625  -4.6729  -4.6278  -4.0517  -3.9322  -3.3984  -3.2875
    -2.4043  -2.0824  -1.5203  -1.3143  -0.9535  -0.6782   1.6940   1.9342
     2.4937   2.5168   2.7694   2.9112   4.3764   4.4886   6.2626   6.2849
     6.5077   6.5133   6.9380   6.9478   7.6858   7.7429   7.8251   7.8266
     8.4747   8.6017   9.7166   9.7307   9.9181   9.9803  10.2548  10.2755
    10.8585  11.0771  11.2286  11.3646  11.7586  11.8311  12.3757  12.4250
    12.8257  12.9168  13.4764  13.7283  13.7881  13.7983  14.3191  14.3192
    14.7834  14.8114  15.2162  15.2212  15.4635  15.4752  15.5119  15.5164
    15.8591  15.8823  15.9083  15.9163

          k = 0.1889 0.3272 0.0000 (  5944 PWs)   bands (ev):

   -73.8720 -73.8720 -48.7091 -48.7048 -48.6030 -48.5991 -48.5138 -48.5086
   -48.4272 -48.4245 -47.8778 -47.8755 -47.7592 -47.7568 -47.7306 -47.7168
   -47.6958 -47.6910 -47.6149 -47.6043 -47.5020 -47.4977 -45.3018 -45.2928
   -35.5766 -35.5667 -35.4914 -35.4869 -13.9932 -13.9353 -13.3622 -13.3554
    -5.2176  -5.1625  -4.5943  -4.5635  -4.2313  -4.1149  -3.4683  -3.3524
    -2.5191  -2.2087  -1.5781  -1.3924  -0.9489  -0.6533   1.7090   1.9650
     2.5367   2.5626   2.8436   2.9725   4.4495   4.5401   6.4538   6.4849
     6.7100   6.7170   7.1456   7.1579   7.6091   7.6469   8.0163   8.0190
     8.6051   8.7106   9.7486   9.7707   9.8047  10.0613  10.3339  10.3517
    10.9153  11.0894  11.2318  11.3399  11.8017  11.8474  12.4200  12.4918
    12.9756  13.0632  13.4527  13.7148  13.8705  13.8863  14.0045  14.0076
    14.4741  14.5104  14.8468  14.8489  15.1415  15.1536  15.1969  15.1969
    15.5062  15.5159  15.6316  15.6443

          k = 0.2000 0.3464 0.0000 (  5944 PWs)   bands (ev):

   -73.8716 -73.8716 -48.6980 -48.6923 -48.6254 -48.6209 -48.5823 -48.5767
   -48.4108 -48.4085 -47.8720 -47.8683 -47.8157 -47.8030 -47.7184 -47.7150
   -47.6951 -47.6893 -47.6268 -47.6154 -47.4740 -47.4686 -45.3045 -45.2945
   -35.5860 -35.5732 -35.4945 -35.4912 -13.8841 -13.8166 -13.3115 -13.3038
    -5.3108  -5.2773  -4.5012  -4.4779  -4.4017  -4.2967  -3.5168  -3.3994
    -2.6501  -2.3572  -1.6419  -1.4776  -0.9325  -0.6222   1.7530   2.0114
     2.5832   2.6022   2.9205   3.0352   4.5118   4.5763   6.6438   6.6902
     6.9206   6.9285   7.3555   7.3757   7.4862   7.5270   8.2154   8.2186
     8.7558   8.8157   9.5681   9.8265   9.8440  10.0035  10.4354  10.4519
    11.0297  11.0637  11.3406  11.4471  11.8639  11.8923  12.4808  12.5570
    13.0927  13.1697  13.4157  13.5924  13.6788  13.7421  14.0176  14.0195
    14.1566  14.1951  14.4898  14.4916  14.8064  14.8301  14.9177  14.9193
    15.1471  15.1574  15.3149  15.3252

          k = 0.2111 0.3657 0.0000 (  5946 PWs)   bands (ev):

   -73.8713 -73.8713 -48.6957 -48.6936 -48.6718 -48.6685 -48.5824 -48.5798
   -48.4248 -48.4224 -47.8591 -47.8540 -47.8385 -47.8314 -47.7799 -47.7788
   -47.6986 -47.6950 -47.6369 -47.6247 -47.4724 -47.4673 -45.3071 -45.2968
   -35.5951 -35.5796 -35.4975 -35.4954 -13.7786 -13.7010 -13.2624 -13.2538
    -5.3980  -5.3843  -4.5885  -4.4814  -4.3848  -4.3805  -3.5485  -3.4315
    -2.7915  -2.5195  -1.7111  -1.5684  -0.9069  -0.5855   1.8236   2.0648
     2.6306   2.6365   2.9971   3.0943   4.5663   4.6000   6.8147   6.8915
     7.1386   7.1469   7.3403   7.3851   7.6117   7.6137   8.4201   8.4245
     8.8326   8.8930   9.4674   9.8385   9.8927   9.9042  10.5600  10.5742
    11.1159  11.2562  11.4518  11.5345  11.9430  11.9578  12.5553  12.6112
    13.1596  13.1917  13.2814  13.3038  13.5854  13.7318  13.8714  13.8922
    14.0552  14.0716  14.1482  14.1607  14.4809  14.5101  14.7050  14.7076
    14.8125  14.8224  15.0069  15.0120

          k = 0.2222 0.3849 0.0000 (  5952 PWs)   bands (ev):

   -73.8714 -73.8713 -48.7223 -48.7150 -48.7104 -48.7021 -48.5841 -48.5799
   -48.4688 -48.4674 -47.8821 -47.8743 -47.8662 -47.8577 -47.7894 -47.7878
   -47.7569 -47.7489 -47.6459 -47.6355 -47.5358 -47.5327 -45.3093 -45.2988
   -35.6032 -35.5848 -35.5008 -35.5001 -13.6782 -13.5900 -13.2154 -13.2060
    -5.4765  -5.4713  -4.7478  -4.6455  -4.3001  -4.2944  -3.5662  -3.4518
    -2.9393  -2.6921  -1.7850  -1.6639  -0.8722  -0.5417   1.9123   2.1084
     2.6446   2.7040   3.0733   3.1486   4.6145   4.6156   6.9034   7.0166
     7.2685   7.3534   7.3638   7.3817   7.8447   7.8481   8.6131   8.6372
     8.7246   8.9546   9.5476   9.7201   9.9778   9.9880  10.7054  10.7161
    11.2555  11.4617  11.5575  11.5925  12.0326  12.0341  12.5985  12.6126
    12.9409  12.9589  13.2549  13.2832  13.5479  13.5653  13.6937  13.7526
    13.8386  13.9170  13.9996  14.0234  14.1851  14.2124  14.4449  14.4542
    14.6603  14.6605  14.7133  14.7164

          k = 0.2333 0.4041 0.0000 (  5936 PWs)   bands (ev):

   -73.8702 -73.8702 -48.6651 -48.6587 -48.6389 -48.6320 -48.5741 -48.5703
   -48.3879 -48.3863 -47.8173 -47.8132 -47.8059 -47.8019 -47.7671 -47.7618
   -47.7054 -47.6945 -47.5799 -47.5700 -47.4861 -47.4837 -45.3106 -45.2984
   -35.6092 -35.5872 -35.5036 -35.5027 -13.5842 -13.4853 -13.1713 -13.1612
    -5.5492  -5.5252  -4.8967  -4.7993  -4.2273  -4.2139  -3.5723  -3.4661
    -3.0842  -2.8694  -1.8624  -1.7628  -0.8270  -0.4880   2.0067   2.1254
     2.6489   2.7983   3.1462   3.1946   4.6228   4.6620   6.8636   6.9342
     7.4076   7.4846   7.5947   7.6045   8.0584   8.0917   8.5493   8.8552
     8.8683   8.8897   9.7332   9.7596  10.0841  10.0913  10.8648  10.8709
    11.3838  11.5864  11.6872  11.7169  12.0984  12.1118  12.5360  12.5615
    12.6771  12.6904  13.2573  13.2763  13.3455  13.3489  13.4919  13.5045
    13.8237  13.8486  13.8576  13.8797  13.9905  14.0536  14.1451  14.1531
    14.4369  14.4441  14.6511  14.6547

          k = 0.2444 0.4234 0.0000 (  5922 PWs)   bands (ev):

   -73.8691 -73.8691 -48.6741 -48.6713 -48.5658 -48.5641 -48.5145 -48.5090
   -48.3641 -48.3624 -47.8271 -47.8208 -47.7758 -47.7679 -47.6868 -47.6806
   -47.6290 -47.6211 -47.5068 -47.4976 -47.4585 -47.4520 -45.3117 -45.2986
   -35.6147 -35.5894 -35.5070 -35.5045 -13.4981 -13.3886 -13.1306 -13.1200
    -5.6002  -5.5573  -5.0318  -4.9386  -4.1676  -4.1485  -3.5693  -3.4886
    -3.2103  -3.0483  -1.9415  -1.8637  -0.7712  -0.4230   2.0818   2.1052
     2.6588   2.9225   3.2124   3.2283   4.6307   4.7098   6.7637   6.7932
     7.5713   7.6740   7.8307   7.8379   8.1636   8.3111   8.5767   8.7773
     9.0800   9.0918   9.9186   9.9608  10.2087  10.2123  11.0302  11.0310
    11.4639  11.5897  11.8472  11.9396  12.1226  12.1533  12.3769  12.4051
    12.4601  12.4762  13.0770  13.0880  13.2291  13.2329  13.3021  13.3161
    13.6735  13.6823  13.6923  13.7143  13.8824  13.8888  14.1058  14.1214
    14.1932  14.2836  14.6233  14.6378

          k = 0.2556 0.4426 0.0000 (  5916 PWs)   bands (ev):

   -73.8686 -73.8686 -48.6410 -48.6376 -48.5443 -48.5402 -48.5046 -48.4974
   -48.3620 -48.3599 -47.7933 -47.7875 -47.7516 -47.7438 -47.6677 -47.6614
   -47.6072 -47.5996 -47.5038 -47.4936 -47.4650 -47.4577 -45.3128 -45.2991
   -35.6195 -35.5909 -35.5112 -35.5068 -13.4211 -13.3014 -13.0939 -13.0831
    -5.6288  -5.5672  -5.1520  -5.0620  -4.1230  -4.1027  -3.5607  -3.5477
    -3.2859  -3.2256  -2.0204  -1.9650  -0.7048  -0.3459   2.0491   2.1049
     2.7001   3.0710   3.2491   3.2700   4.6416   4.7601   6.6586   6.6601
     7.6178   7.8481   8.0711   8.0730   8.2348   8.4012   8.7986   8.8300
     9.3070   9.3215  10.1302  10.2101  10.3433  10.3447  11.1822  11.1913
    11.4960  11.5562  11.9471  12.0272  12.1276  12.1623  12.2520  12.2615
    12.2955  12.3010  12.8261  12.8433  12.9811  12.9824  13.2653  13.2750
    13.4517  13.4668  13.5614  13.5782  13.7520  13.7609  13.9473  13.9686
    14.3411  14.4450  14.5472  14.5714

          k = 0.2667 0.4619 0.0000 (  5926 PWs)   bands (ev):

   -73.8689 -73.8689 -48.6258 -48.6200 -48.6072 -48.6002 -48.5293 -48.5239
   -48.4308 -48.4287 -47.7947 -47.7915 -47.7818 -47.7799 -47.7413 -47.7378
   -47.6789 -47.6762 -47.5411 -47.5303 -47.5291 -47.5194 -45.3152 -45.3005
   -35.6247 -35.5925 -35.5162 -35.5100 -13.3542 -13.2249 -13.0617 -13.0507
    -5.6346  -5.5544  -5.2561  -5.1683  -4.0951  -4.0846  -3.6465  -3.5541
    -3.3898  -3.2999  -2.0968  -2.0644  -0.6301  -0.2580   1.9661   2.0622
     2.7817   3.2317   3.2548   3.3161   4.6581   4.8130   6.5374   6.5644
     7.5229   7.8920   8.3039   8.3134   8.4253   8.4658   9.0711   9.0841
     9.5332   9.5504  10.3605  10.4618  10.4805  10.4809  11.2995  11.3173
    11.4947  11.4988  11.8358  11.8611  11.9733  12.0068  12.2541  12.2585
    12.3398  12.4250  12.5760  12.5885  12.7454  12.7487  13.1110  13.1122
    13.2666  13.2818  13.4305  13.4765  13.7436  13.7508  13.7965  13.7986
    14.4286  14.4408  14.5923  14.6302

          k = 0.2778 0.4811 0.0000 (  5912 PWs)   bands (ev):

   -73.8681 -73.8681 -48.6041 -48.6014 -48.5440 -48.5421 -48.4769 -48.4735
   -48.3944 -48.3916 -47.7998 -47.7940 -47.7189 -47.7095 -47.6370 -47.6250
   -47.5830 -47.5723 -47.5466 -47.5388 -47.5123 -47.5100 -45.3163 -45.3006
   -35.6270 -35.5914 -35.5205 -35.5123 -13.2977 -13.1600 -13.0343 -13.0234
    -5.6172  -5.5195  -5.3431  -5.2562  -4.1090  -4.0871  -3.7352  -3.6083
    -3.4757  -3.2816  -2.1680  -2.1591  -0.5496  -0.1611   1.8669   1.9715
     2.8838   3.2486   3.3541   3.3946   4.6817   4.8674   6.4447   6.4928
     7.3800   7.7848   8.5272   8.5473   8.6715   8.6909   9.3692   9.3963
     9.7545   9.7728  10.5740  10.5917  10.6319  10.7356  11.3522  11.3661
    11.4307  11.4733  11.6747  11.6749  11.8479  11.8627  12.2494  12.2731
    12.3323  12.3453  12.3885  12.4166  12.6709  12.7386  12.8727  12.8776
    13.1382  13.1417  13.3009  13.3482  13.6499  13.6510  13.8207  13.8556
    14.2919  14.3021  14.6474  14.6566

          k = 0.2889 0.5004 0.0000 (  5926 PWs)   bands (ev):

   -73.8688 -73.8688 -48.7081 -48.7062 -48.6219 -48.6208 -48.4999 -48.4970
   -48.4083 -48.4043 -47.8882 -47.8830 -47.7769 -47.7733 -47.7088 -47.6976
   -47.6659 -47.6602 -47.5883 -47.5768 -47.5301 -47.5284 -45.3181 -45.3009
   -35.6305 -35.5911 -35.5255 -35.5151 -13.2525 -13.1075 -13.0120 -13.0013
    -5.5788  -5.4669  -5.4136  -5.3242  -4.1863  -4.1082  -3.7864  -3.7283
    -3.4712  -3.2512  -2.2464  -2.2314  -0.4694  -0.0613   1.7625   1.8566
     2.9784   3.2336   3.3891   3.5458   4.7098   4.9194   6.3816   6.4461
     7.2270   7.6264   8.7356   8.7673   8.9414   8.9884   9.6868   9.7238
     9.9568   9.9710  10.6909  10.6944  10.8130  10.9474  11.3104  11.3158
    11.3615  11.3952  11.4921  11.5303  11.8525  11.8654  12.1147  12.1168
    12.1489  12.1780  12.3191  12.3277  12.6251  12.6450  12.8088  12.9158
    13.0407  13.0426  13.1719  13.2039  13.5551  13.5613  13.8525  13.8936
    14.1855  14.1891  14.6011  14.6210

          k = 0.3000 0.5196 0.0000 (  5924 PWs)   bands (ev):

   -73.8687 -73.8687 -48.7041 -48.7022 -48.6176 -48.6164 -48.4890 -48.4862
   -48.4132 -48.4081 -47.8827 -47.8788 -47.7639 -47.7639 -47.7082 -47.6981
   -47.6581 -47.6529 -47.5943 -47.5836 -47.5339 -47.5334 -45.3189 -45.3011
   -35.6321 -35.5896 -35.5294 -35.5169 -13.2183 -13.0676 -12.9948 -12.9844
    -5.5234  -5.4668  -5.4209  -5.3512  -4.2965  -4.1681  -3.8194  -3.8057
    -3.4536  -3.2171  -2.3218  -2.2837  -0.3957   0.0348   1.6653   1.7390
     3.0481   3.2158   3.4273   3.6754   4.7398   4.9662   6.3538   6.4290
     7.0790   7.4665   8.9218   8.9666   9.2335   9.3029  10.0079  10.0611
    10.1219  10.1242  10.7693  10.7709  10.9158  10.9932  11.2042  11.2121
    11.2556  11.2696  11.5290  11.5355  11.9088  11.9191  11.9239  11.9466
    11.9602  11.9678  12.3076  12.3261  12.4449  12.4589  12.8455  12.9560
    13.0216  13.0275  13.0712  13.0983  13.5620  13.5869  13.7537  13.7984
    14.1448  14.1625  14.5409  14.5417

          k = 0.3111 0.5389 0.0000 (  5914 PWs)   bands (ev):

   -73.8680 -73.8680 -48.6092 -48.6086 -48.5704 -48.5693 -48.4542 -48.4505
   -48.4267 -48.4224 -47.8054 -47.7994 -47.7269 -47.7258 -47.6528 -47.6435
   -47.6188 -47.6115 -47.5907 -47.5842 -47.5528 -47.5511 -45.3190 -45.3007
   -35.6327 -35.5875 -35.5322 -35.5177 -13.1948 -13.0399 -12.9829 -12.9727
    -5.5038  -5.4584  -5.4342  -5.2947  -4.4088  -4.2574  -3.8682  -3.8118
    -3.4375  -3.1863  -2.3807  -2.3224  -0.3360   0.1167   1.5863   1.6368
     3.0885   3.1995   3.4657   3.7730   4.7669   5.0036   6.3685   6.4454
     6.9381   7.3197   9.0734   9.1315   9.5219   9.6179  10.2037  10.2123
    10.3465  10.3897  10.8013  10.8089  10.8937  10.8999  11.0354  11.0690
    11.2804  11.2815  11.5245  11.5836  11.7162  11.7177  11.9180  11.9258
    11.9652  11.9778  12.2616  12.2745  12.3434  12.3784  12.7835  12.8445
    12.9553  12.9840  13.1074  13.1196  13.5895  13.6672  13.7046  13.7555
    14.0626  14.0813  14.4911  14.4934

          k = 0.3222 0.5581 0.0000 (  5914 PWs)   bands (ev):

   -73.8680 -73.8680 -48.6112 -48.6084 -48.5529 -48.5491 -48.4509 -48.4462
   -48.4356 -48.4324 -47.7735 -47.7684 -47.7589 -47.7586 -47.6513 -47.6401
   -47.6128 -47.6048 -47.6001 -47.5919 -47.5792 -47.5774 -45.3192 -45.3005
   -35.6335 -35.5865 -35.5340 -35.5182 -13.1814 -13.0241 -12.9759 -12.9659
    -5.5245  -5.4521  -5.4024  -5.2297  -4.4961  -4.3391  -3.8910  -3.8143
    -3.4271  -3.1652  -2.4180  -2.3457  -0.2975   0.1723   1.5345   1.5663
     3.1057   3.1868   3.4931   3.8317   4.7861   5.0283   6.4126   6.4786
     6.8180   7.2075   9.1680   9.2362   9.7592   9.8916  10.2608  10.2664
    10.5685  10.5910  10.7718  10.7760  10.8469  10.8661  10.9662  11.0003
    11.3828  11.4124  11.4234  11.4244  11.5262  11.5372  11.8600  11.8668
    12.0595  12.1304  12.2221  12.2291  12.3533  12.4506  12.7056  12.7245
    12.8537  12.8602  13.1630  13.1666  13.5442  13.6312  13.8160  13.9155
    13.9511  13.9615  14.4610  14.4614

          k = 0.3333 0.5774 0.0000 (  5904 PWs)   bands (ev):

   -73.8675 -73.8675 -48.5702 -48.5686 -48.4960 -48.4930 -48.4216 -48.4198
   -48.4138 -48.4102 -47.7294 -47.7281 -47.7056 -47.6986 -47.6187 -47.6142
   -47.5894 -47.5868 -47.5769 -47.5723 -47.5521 -47.5373 -45.3188 -45.2997
   -35.6331 -35.5854 -35.5343 -35.5180 -13.1772 -13.0190 -12.9736 -12.9637
    -5.5308  -5.4577  -5.3781  -5.2011  -4.5304  -4.3730  -3.8981  -3.8152
    -3.4234  -3.1575  -2.4306  -2.3533  -0.2844   0.1919   1.5171   1.5417
     3.1103   3.1828   3.5031   3.8506   4.7933   5.0372   6.4515   6.5031
     6.7606   7.1635   9.2005   9.2722   9.8547  10.0087  10.2818  10.2963
    10.6367  10.6460  10.7259  10.7584  10.7670  10.7854  11.1191  11.1545
    11.3130  11.3148  11.3668  11.4054  11.5078  11.5159  11.7867  11.7975
    12.1411  12.1686  12.1700  12.2581  12.4193  12.5322  12.6974  12.7136
    12.7471  12.7798  13.1350  13.1571  13.6452  13.7094  13.7156  13.7967
    13.9908  14.0518  14.4222  14.4367

          k = 0.3389 0.5677 0.0000 (  5910 PWs)   bands (ev):

   -73.8678 -73.8678 -48.5773 -48.5748 -48.5038 -48.5003 -48.4723 -48.4701
   -48.4383 -48.4350 -47.7352 -47.7345 -47.7143 -47.7079 -47.6493 -47.6447
   -47.6251 -47.6132 -47.6002 -47.5951 -47.5750 -47.5692 -45.3189 -45.3001
   -35.6333 -35.5857 -35.5345 -35.5182 -13.1782 -13.0202 -12.9742 -12.9643
    -5.5293  -5.4564  -5.3850  -5.2092  -4.5213  -4.3641  -3.8960  -3.8148
    -3.4244  -3.1595  -2.4276  -2.3515  -0.2876   0.1872   1.5213   1.5477
     3.1096   3.1842   3.5009   3.8462   4.7913   5.0348   6.4360   6.4935
     6.7763   7.1734   9.1937   9.2647   9.8338   9.9842  10.2741  10.2866
    10.5938  10.6150  10.7569  10.7609  10.8034  10.8229  11.0911  11.1093
    11.2546  11.2727  11.4748  11.4788  11.4987  11.5023  11.7948  11.8037
    12.1195  12.1896  12.1953  12.2340  12.3979  12.5047  12.6635  12.6717
    12.8230  12.8234  13.1482  13.1614  13.5995  13.6773  13.7640  13.8364
    13.9711  14.0265  14.4330  14.4441

          k = 0.3444 0.5581 0.0000 (  5910 PWs)   bands (ev):

   -73.8678 -73.8678 -48.5963 -48.5939 -48.5322 -48.5291 -48.4426 -48.4397
   -48.4195 -48.4179 -47.7502 -47.7481 -47.7458 -47.7433 -47.6336 -47.6248
   -47.6047 -47.5980 -47.5955 -47.5914 -47.5570 -47.5533 -45.3191 -45.3004
   -35.6334 -35.5864 -35.5339 -35.5180 -13.1810 -13.0236 -12.9757 -12.9658
    -5.5251  -5.4527  -5.4052  -5.2324  -4.4943  -4.3390  -3.8883  -3.8132
    -3.4265  -3.1642  -2.4190  -2.3465  -0.2966   0.1736   1.5338   1.5655
     3.1073   3.1883   3.4948   3.8338   4.7853   5.0275   6.3976   6.4691
     6.8327   7.2167   9.1749   9.2444   9.7806   9.9246  10.2504  10.2599
    10.5203  10.5488  10.7833  10.7842  10.8555  10.8784  11.0729  11.0795
    11.1774  11.2110  11.4327  11.4427  11.6517  11.6640  11.7941  11.7991
    12.0731  12.1654  12.2549  12.2639  12.3588  12.4397  12.5991  12.6197
    12.9186  12.9453  13.1624  13.1664  13.5673  13.6539  13.8066  13.8871
    13.9329  13.9679  14.4524  14.4542

          k = 0.3500 0.5485 0.0000 (  5910 PWs)   bands (ev):

   -73.8678 -73.8678 -48.5906 -48.5892 -48.5650 -48.5626 -48.4313 -48.4311
   -48.4059 -48.4045 -47.7863 -47.7800 -47.7317 -47.7312 -47.6332 -47.6276
   -47.5938 -47.5930 -47.5796 -47.5717 -47.5465 -47.5447 -45.3190 -45.3006
   -35.6330 -35.5872 -35.5329 -35.5178 -13.1854 -13.0291 -12.9782 -12.9682
    -5.5187  -5.4471  -5.4364  -5.2679  -4.4522  -4.3024  -3.8727  -3.8096
    -3.4296  -3.1714  -2.4056  -2.3385  -0.3109   0.1525   1.5544   1.5942
     3.1033   3.1953   3.4860   3.8144   4.7749   5.0150   6.3451   6.4307
     6.9152   7.2865   9.1462   9.2140   9.7073   9.8458  10.2136  10.2205
    10.4422  10.4733  10.8017  10.8114  10.8297  10.8591  11.0741  11.0802
    11.1801  11.2191  11.3820  11.3913  11.7685  11.7730  11.8072  11.8488
    12.0347  12.0973  12.2199  12.2859  12.4239  12.4353  12.5351  12.5598
    13.0310  13.0798  13.1408  13.1543  13.5909  13.6720  13.7755  13.8591
    13.9338  13.9566  14.4530  14.4566

          k = 0.3556 0.5389 0.0000 (  5914 PWs)   bands (ev):

   -73.8680 -73.8680 -48.6409 -48.6402 -48.6137 -48.6118 -48.4275 -48.4264
   -48.3871 -48.3852 -47.8538 -47.8470 -47.7638 -47.7621 -47.6470 -47.6450
   -47.5895 -47.5848 -47.5623 -47.5522 -47.5271 -47.5256 -45.3190 -45.3007
   -35.6332 -35.5885 -35.5317 -35.5175 -13.1914 -13.0366 -12.9816 -12.9716
    -5.5129  -5.4744  -5.4405  -5.3120  -4.3992  -4.2617  -3.8455  -3.8026
    -3.4333  -3.1801  -2.3882  -2.3281  -0.3295   0.1254   1.5813   1.6312
     3.0977   3.2059   3.4762   3.7889   4.7602   4.9972   6.2851   6.3805
     7.0120   7.3753   9.1109   9.1770   9.6223   9.7574  10.1681  10.1729
    10.3633  10.3953  10.7424  10.7811  10.8368  10.8396  11.0012  11.0187
    11.3177  11.3226  11.3465  11.3492  11.7453  11.7460  11.8406  11.9468
    12.0951  12.1048  12.1319  12.1866  12.4584  12.4936  12.5549  12.5646
    13.0870  13.0991  13.1738  13.2141  13.6349  13.7147  13.7166  13.7674
    13.9695  14.0007  14.4417  14.4471

          k = 0.3611 0.5292 0.0000 (  5918 PWs)   bands (ev):

   -73.8683 -73.8683 -48.6671 -48.6651 -48.6500 -48.6472 -48.4310 -48.4296
   -48.3903 -48.3880 -47.8840 -47.8783 -47.7905 -47.7892 -47.6606 -47.6575
   -47.5927 -47.5898 -47.5636 -47.5534 -47.5257 -47.5241 -45.3190 -45.3010
   -35.6334 -35.5901 -35.5301 -35.5170 -13.1986 -13.0457 -12.9857 -12.9757
    -5.5350  -5.4885  -5.4386  -5.3565  -4.3403  -4.2241  -3.8026  -3.7902
    -3.4374  -3.1894  -2.3678  -2.3156  -0.3516   0.0940   1.6137   1.6753
     3.0900   3.2211   3.4679   3.7586   4.7410   4.9742   6.2212   6.3227
     7.1193   7.4793   9.0720   9.1369   9.5307   9.6640  10.1174  10.1204
    10.2847  10.3169  10.6633  10.6995  10.8386  10.8423  10.9233  10.9448
    11.3035  11.3095  11.4665  11.4739  11.7094  11.7153  11.7788  11.8836
    12.0202  12.0752  12.2712  12.2728  12.4006  12.4259  12.6851  12.6922
    13.0478  13.0611  13.2906  13.3431  13.5709  13.6613  13.7458  13.7622
    14.0334  14.0727  14.4259  14.4330

          k = 0.3667 0.5196 0.0000 (  5914 PWs)   bands (ev):

   -73.8681 -73.8681 -48.6290 -48.6278 -48.6182 -48.6162 -48.4318 -48.4306
   -48.3845 -48.3823 -47.8390 -47.8332 -47.7672 -47.7667 -47.6427 -47.6405
   -47.5942 -47.5909 -47.5614 -47.5513 -47.5170 -47.5154 -45.3185 -45.3007
   -35.6330 -35.5913 -35.5276 -35.5156 -13.2069 -13.0564 -12.9906 -12.9805
    -5.5845  -5.4774  -5.4589  -5.3809  -4.2806  -4.1945  -3.7694  -3.7411
    -3.4410  -3.1982  -2.3450  -2.3016  -0.3762   0.0599   1.6511   1.7251
     3.0794   3.2415   3.4637   3.7246   4.7178   4.9460   6.1556   6.2603
     7.2366   7.5966   9.0312   9.0957   9.4357   9.5685  10.0643  10.0657
    10.2070  10.2391  10.5818  10.6160  10.8177  10.8244  10.8484  10.8691
    11.2751  11.2760  11.5672  11.6013  11.6682  11.6741  11.7174  11.7948
    11.9642  11.9959  12.3139  12.3528  12.4649  12.4861  12.7697  12.7739
    13.0542  13.0744  13.4115  13.4643  13.4786  13.5625  13.7793  13.7834
    14.1402  14.1817  14.4086  14.4191

          k = 0.3722 0.5100 0.0000 (  5910 PWs)   bands (ev):

   -73.8678 -73.8678 -48.6100 -48.6081 -48.5950 -48.5938 -48.4313 -48.4302
   -48.3604 -48.3586 -47.8223 -47.8157 -47.7486 -47.7482 -47.6101 -47.6058
   -47.5947 -47.5858 -47.5560 -47.5457 -47.4873 -47.4854 -45.3180 -45.3006
   -35.6327 -35.5929 -35.5248 -35.5142 -13.2162 -13.0684 -12.9961 -12.9860
    -5.6392  -5.5085  -5.4618  -5.3779  -4.2264  -4.1750  -3.7370  -3.6615
    -3.4440  -3.2055  -2.3208  -2.2866  -0.4023   0.0245   1.6919   1.7789
     3.0641   3.2650   3.4643   3.6880   4.6904   4.9127   6.0892   6.1949
     7.3618   7.7248   8.9867   9.0522   9.3391   9.4720  10.0098  10.0101
    10.1304  10.1623  10.5007  10.5337  10.7606  10.7868  10.7918  10.7946
    11.2318  11.2419  11.5182  11.5331  11.6073  11.6940  11.7730  11.7743
    11.9739  11.9819  12.2626  12.2867  12.6572  12.6777  12.7655  12.7715
    13.1509  13.1709  13.3769  13.4648  13.5467  13.5850  13.7969  13.7975
    14.2787  14.3160  14.3925  14.4092

          k = 0.3778 0.5004 0.0000 (  5908 PWs)   bands (ev):

   -73.8677 -73.8677 -48.6073 -48.6058 -48.5798 -48.5779 -48.4500 -48.4491
   -48.3354 -48.3333 -47.8224 -47.8168 -47.7431 -47.7425 -47.6201 -47.6171
   -47.5866 -47.5846 -47.5381 -47.5315 -47.4239 -47.4225 -45.3176 -45.3005
   -35.6328 -35.5949 -35.5218 -35.5125 -13.2262 -13.0817 -13.0021 -12.9920
    -5.6957  -5.5674  -5.4448  -5.3654  -4.1821  -4.1640  -3.6902  -3.5664
    -3.4460  -3.2100  -2.2957  -2.2709  -0.4295  -0.0115   1.7350   1.8350
     3.0439   3.2923   3.4719   3.6505   4.6593   4.8749   6.0207   6.1263
     7.4921   7.8602   8.9399   9.0082   9.2440   9.3766   9.9541   9.9555
    10.0552  10.0867  10.4212  10.4534  10.6865  10.7168  10.7412  10.7415
    11.1690  11.1899  11.4072  11.4214  11.5149  11.5940  11.8594  11.8708
    12.0228  12.0268  12.2327  12.2356  12.7155  12.7282  12.8565  12.8726
    13.2781  13.2951  13.2956  13.3843  13.6717  13.6938  13.8239  13.8240
    14.3805  14.3987  14.4262  14.4644

          k = 0.3833 0.4907 0.0000 (  5916 PWs)   bands (ev):

   -73.8681 -73.8681 -48.6486 -48.6478 -48.5472 -48.5468 -48.5052 -48.5037
   -48.3767 -48.3734 -47.8395 -47.8339 -47.7417 -47.7402 -47.6738 -47.6719
   -47.6318 -47.6292 -47.5539 -47.5504 -47.4466 -47.4463 -45.3175 -45.3013
   -35.6332 -35.5974 -35.5194 -35.5114 -13.2368 -13.0959 -13.0085 -12.9986
    -5.7531  -5.6292  -5.4265  -5.3498  -4.1600  -4.1509  -3.6294  -3.4604
    -3.4460  -3.2099  -2.2705  -2.2550  -0.4571  -0.0474   1.7795   1.8925
     3.0184   3.3211   3.4864   3.6132   4.6244   4.8322   5.9510   6.0553
     7.6205   7.9955   8.8886   8.9628   9.1506   9.2813   9.8986   9.9014
     9.9815  10.0125  10.3437  10.3754  10.6116  10.6419  10.6816  10.6835
    11.0729  11.1015  11.3017  11.3188  11.4155  11.4913  11.9000  11.9068
    12.0831  12.0990  12.2150  12.2624  12.6666  12.6826  13.0445  13.0564
    13.2252  13.3216  13.3898  13.3996  13.7946  13.7989  13.8872  13.8906
    14.3818  14.4081  14.5659  14.5994

          k = 0.3889 0.4811 0.0000 (  5936 PWs)   bands (ev):

   -73.8692 -73.8692 -48.6914 -48.6897 -48.6366 -48.6358 -48.5321 -48.5302
   -48.4778 -48.4737 -47.8922 -47.8877 -47.7774 -47.7750 -47.7151 -47.7018
   -47.6937 -47.6851 -47.6776 -47.6676 -47.5814 -47.5792 -45.3178 -45.3024
   -35.6341 -35.6002 -35.5179 -35.5111 -13.2479 -13.1111 -13.0154 -13.0055
    -5.8099  -5.6912  -5.4077  -5.3334  -4.1617  -4.1333  -3.5590  -3.4463
    -3.3445  -3.2026  -2.2456  -2.2393  -0.4849  -0.0825   1.8248   1.9508
     2.9880   3.3485   3.5072   3.5794   4.5866   4.7857   5.8825   5.9852
     7.7464   8.1288   8.8341   8.9185   9.0626   9.1872   9.8442   9.8484
     9.9090   9.9393  10.2682  10.2997  10.5370  10.5672  10.6107  10.6164
    10.9421  10.9681  11.2237  11.2385  11.3136  11.3869  11.8752  11.8785
    12.1473  12.1578  12.2504  12.3204  12.6321  12.6531  13.1274  13.1821
    13.2732  13.3283  13.4544  13.4570  13.9017  13.9103  14.0063  14.0125
    14.4030  14.4330  14.6752  14.7073

          k = 0.3944 0.4715 0.0000 (  5944 PWs)   bands (ev):

   -73.8697 -73.8696 -48.7190 -48.7187 -48.6459 -48.6443 -48.5609 -48.5590
   -48.5118 -48.5087 -47.8993 -47.8940 -47.8223 -47.8209 -47.7406 -47.7302
   -47.7165 -47.7117 -47.6970 -47.6862 -47.6281 -47.6227 -45.3178 -45.3029
   -35.6349 -35.6029 -35.5152 -35.5095 -13.2592 -13.1268 -13.0225 -13.0128
    -5.8659  -5.7527  -5.3880  -5.3160  -4.1656  -4.1241  -3.4870  -3.4434
    -3.2223  -3.1816  -2.2238  -2.2211  -0.5120  -0.1161   1.8700   2.0088
     2.9543   3.3708   3.5367   3.5567   4.5464   4.7358   5.8141   5.9147
     7.8750   8.2630   8.7776   8.8771   8.9877   9.0988   9.7909   9.7968
     9.8392   9.8680  10.1956  10.2269  10.4641  10.4941  10.5267  10.5386
    10.8062  10.8226  11.1658  11.1767  11.2155  11.2857  11.8212  11.8276
    12.1986  12.2022  12.3010  12.3679  12.6303  12.6579  13.0891  13.1837
    13.4537  13.4692  13.4840  13.4855  14.0090  14.0221  14.1701  14.1789
    14.4525  14.4788  14.7286  14.7594

          k = 0.4000 0.4619 0.0000 (  5952 PWs)   bands (ev):

   -73.8701 -73.8701 -48.7444 -48.7436 -48.6713 -48.6680 -48.5665 -48.5635
   -48.5568 -48.5558 -47.9063 -47.8998 -47.8802 -47.8789 -47.7714 -47.7546
   -47.7454 -47.7400 -47.7023 -47.6934 -47.6779 -47.6654 -45.3174 -45.3028
   -35.6356 -35.6054 -35.5124 -35.5076 -13.2706 -13.1430 -13.0297 -13.0202
    -5.9204  -5.8129  -5.3681  -5.2985  -4.1720  -4.1225  -3.4386  -3.4247
    -3.1392  -3.0954  -2.2086  -2.1977  -0.5384  -0.1484   1.9144   2.0659
     2.9180   3.3758   3.5563   3.5732   4.5049   4.6832   5.7487   5.8470
     7.9950   8.3759   8.7250   8.8386   8.9335   9.0185   9.7379   9.7468
     9.7726   9.7983  10.1255  10.1570  10.3881  10.4191  10.4214  10.4365
    10.6859  10.6899  11.1105  11.1219  11.1237  11.1871  11.7586  11.7628
    12.2174  12.2272  12.3262  12.3853  12.6741  12.7071  13.0523  13.1625
    13.4951  13.4961  13.6419  13.6428  14.1156  14.1198  14.3590  14.3688
    14.5425  14.5544  14.7380  14.7681

          k = 0.4056 0.4523 0.0000 (  5962 PWs)   bands (ev):

   -73.8707 -73.8707 -48.7601 -48.7582 -48.7037 -48.6983 -48.6367 -48.6306
   -48.5996 -48.5969 -47.9255 -47.9200 -47.9064 -47.9029 -47.8263 -47.8108
   -47.7936 -47.7879 -47.7244 -47.7150 -47.7104 -47.7027 -45.3173 -45.3036
   -35.6362 -35.6080 -35.5102 -35.5063 -13.2821 -13.1596 -13.0371 -13.0279
    -5.9732  -5.8714  -5.3484  -5.2814  -4.1794  -4.1254  -3.4313  -3.3806
    -3.0702  -2.9652  -2.1938  -2.1751  -0.5642  -0.1792   1.9573   2.1217
     2.8799   3.3591   3.5830   3.6159   4.4621   4.6282   5.6833   5.7789
     8.0917   8.4247   8.6951   8.7998   8.9163   8.9557   9.6834   9.6984
     9.7116   9.7305  10.0578  10.0901  10.2671  10.2993  10.3330  10.3546
    10.5904  10.5947  11.0259  11.0693  11.0700  11.0946  11.6958  11.6959
    12.2119  12.2225  12.3282  12.3817  12.7479  12.7836  13.0233  13.1422
    13.5127  13.5134  13.8048  13.8157  14.2107  14.2215  14.5540  14.5600
    14.6650  14.6704  14.7354  14.7680

          k = 0.4111 0.4426 0.0000 (  5958 PWs)   bands (ev):

   -73.8705 -73.8705 -48.7469 -48.7443 -48.6950 -48.6885 -48.6254 -48.6192
   -48.5745 -48.5720 -47.9070 -47.9027 -47.9007 -47.8965 -47.8194 -47.8056
   -47.7902 -47.7825 -47.7013 -47.6904 -47.6607 -47.6545 -45.3164 -45.3033
   -35.6361 -35.6098 -35.5068 -35.5038 -13.2933 -13.1762 -13.0445 -13.0356
    -6.0238  -5.9278  -5.3287  -5.2645  -4.1879  -4.1318  -3.4214  -3.3521
    -2.9785  -2.8331  -2.1792  -2.1534  -0.5889  -0.2085   1.9984   2.1756
     2.8412   3.3293   3.6290   3.6645   4.4195   4.5718   5.6192   5.7122
     8.1644   8.3944   8.6853   8.7571   8.9269   8.9662   9.6259   9.6515
     9.6589   9.6656   9.9915  10.0258  10.1147  10.1466  10.2671  10.2880
    10.5172  10.5248  10.9405  10.9996  11.0245  11.0300  11.6312  11.6357
    12.1892  12.1994  12.3190  12.3669  12.8237  12.8641  13.0038  13.1224
    13.5459  13.5503  13.9462  13.9560  14.3206  14.3371  14.6533  14.6591
    14.8123  14.8174  14.8465  14.8552

          k = 0.4167 0.4330 0.0000 (  5946 PWs)   bands (ev):

   -73.8698 -73.8698 -48.6986 -48.6934 -48.6712 -48.6643 -48.5718 -48.5692
   -48.5268 -48.5252 -47.8778 -47.8714 -47.8483 -47.8420 -47.7694 -47.7615
   -47.7543 -47.7418 -47.6425 -47.6305 -47.6017 -47.5948 -45.3152 -45.3024
   -35.6358 -35.6113 -35.5029 -35.5006 -13.3041 -13.1929 -13.0519 -13.0432
    -6.0719  -5.9818  -5.3096  -5.2485  -4.1966  -4.1402  -3.4088  -3.3323
    -2.8734  -2.7009  -2.1639  -2.1323  -0.6130  -0.2365   2.0371   2.2272
     2.8027   3.2944   3.6860   3.7173   4.3782   4.5149   5.5570   5.6469
     8.1961   8.3179   8.6628   8.7076   8.9464   9.0788   9.5678   9.5987
     9.6113   9.6125   9.9181   9.9459   9.9818  10.0028  10.2064  10.2249
    10.4591  10.4676  10.8620  10.9191  10.9824  10.9854  11.5695  11.5791
    12.1582  12.1682  12.3032  12.3448  12.8728  12.9296  12.9989  13.1011
    13.6072  13.6161  14.0490  14.0523  14.4715  14.4784  14.6388  14.6520
    14.9928  15.0066  15.0360  15.0524

          k = 0.4222 0.4234 0.0000 (  5958 PWs)   bands (ev):

   -73.8705 -73.8705 -48.7430 -48.7390 -48.6962 -48.6903 -48.6316 -48.6283
   -48.5590 -48.5562 -47.9156 -47.9111 -47.8674 -47.8557 -47.8220 -47.8067
   -47.7657 -47.7555 -47.7493 -47.7436 -47.6445 -47.6412 -45.3152 -45.3039
   -35.6363 -35.6138 -35.5014 -35.4998 -13.3146 -13.2095 -13.0591 -13.0508
    -6.1176  -6.0334  -5.2915  -5.2338  -4.2067  -4.1513  -3.3941  -3.3168
    -2.7628  -2.5722  -2.1465  -2.1116  -0.6368  -0.2638   2.0728   2.2756
     2.7645   3.2569   3.7481   3.7706   4.3388   4.4569   5.4931   5.5799
     8.1799   8.2240   8.6265   8.6535   8.9970   9.2047   9.5122   9.5397
     9.5680   9.5699   9.7912   9.7941   9.9082   9.9191  10.1497  10.1654
    10.4086  10.4173  10.7888  10.8431  10.9424  10.9442  11.5086  11.5235
    12.1226  12.1325  12.2804  12.3161  12.8782  12.9689  13.0084  13.0742
    13.7007  13.7135  14.1045  14.1227  14.6087  14.6172  14.6558  14.6569
    15.1589  15.1599  15.2542  15.2737

          k = 0.4278 0.4138 0.0000 (  5958 PWs)   bands (ev):

   -73.8706 -73.8706 -48.7423 -48.7379 -48.6973 -48.6906 -48.6215 -48.6166
   -48.5689 -48.5656 -47.9169 -47.9129 -47.8563 -47.8439 -47.8221 -47.8080
   -47.7749 -47.7705 -47.7443 -47.7390 -47.6391 -47.6358 -45.3149 -45.3042
   -35.6365 -35.6160 -35.4988 -35.4978 -13.3245 -13.2257 -13.0661 -13.0583
    -6.1607  -6.0824  -5.2743  -5.2203  -4.2160  -4.1626  -3.3774  -3.3025
    -2.6503  -2.4501  -2.1231  -2.0899  -0.6602  -0.2905   2.1051   2.3203
     2.7286   3.2200   3.8159   3.8256   4.3027   4.3987   5.4328   5.5163
     8.1250   8.1332   8.5838   8.5976   9.0686   9.3318   9.4637   9.4908
     9.5273   9.5309   9.6419   9.6516   9.8575   9.8710  10.0992  10.1119
    10.3635  10.3722  10.7240  10.7755  10.9049  10.9060  11.4541  11.4742
    12.0858  12.0955  12.2559  12.2863  12.8571  12.9815  13.0191  13.0487
    13.8239  13.8384  14.1410  14.1698  14.5807  14.5962  14.8362  14.8501
    15.2028  15.2450  15.4777  15.4974

          k = 0.4333 0.4041 0.0000 (  5966 PWs)   bands (ev):

   -73.8711 -73.8710 -48.7851 -48.7801 -48.7540 -48.7503 -48.6349 -48.6329
   -48.5990 -48.5974 -47.9733 -47.9653 -47.8999 -47.8847 -47.8181 -47.8111
   -47.7874 -47.7776 -47.7709 -47.7597 -47.6525 -47.6473 -45.3148 -45.3047
   -35.6373 -35.6184 -35.4968 -35.4962 -13.3338 -13.2417 -13.0728 -13.0654
    -6.2009  -6.1285  -5.2583  -5.2080  -4.2259  -4.1750  -3.3590  -3.2887
    -2.5412  -2.3455  -2.0846  -2.0654  -0.6840  -0.3173   2.1340   2.3599
     2.6961   3.1840   3.8784   3.8879   4.2742   4.3422   5.3721   5.4520
     8.0251   8.0655   8.5367   8.5403   9.1244   9.3783   9.4182   9.4487
     9.4956   9.5140   9.5375   9.5458   9.8276   9.8319  10.0554  10.0662
    10.3232  10.3317  10.6657  10.7143  10.8698  10.8703  11.4029  11.4283
    12.0506  12.0601  12.2284  12.2543  12.8236  12.9662  13.0207  13.0301
    13.9664  13.9794  14.1673  14.2030  14.5565  14.5751  15.0067  15.0124
    15.2156  15.2570  15.6976  15.6998

          k = 0.4389 0.3945 0.0000 (  5968 PWs)   bands (ev):

   -73.8712 -73.8712 -48.7835 -48.7756 -48.7546 -48.7459 -48.6511 -48.6458
   -48.6075 -48.6030 -47.9772 -47.9699 -47.9069 -47.8940 -47.8316 -47.8196
   -47.8100 -47.8013 -47.7781 -47.7700 -47.6449 -47.6398 -45.3143 -45.3049
   -35.6376 -35.6204 -35.4942 -35.4940 -13.3424 -13.2571 -13.0793 -13.0724
    -6.2381  -6.1717  -5.2433  -5.1970  -4.2344  -4.1867  -3.3391  -3.2743
    -2.4399  -2.2721  -2.0351  -2.0162  -0.7079  -0.3442   2.1594   2.3931
     2.6690   3.1494   3.9236   3.9625   4.2573   4.2869   5.3148   5.3907
     7.9272   7.9869   8.4786   8.4839   9.1327   9.3267   9.3436   9.3514
     9.4633   9.4697   9.5150   9.5944   9.8059   9.8323  10.0223  10.0364
    10.2868  10.2952  10.6172  10.6631  10.8372  10.8373  11.3592  11.3895
    12.0171  12.0264  12.2037  12.2258  12.7839  12.9323  13.0152  13.0176
    14.1118  14.1187  14.1931  14.2335  14.5416  14.5660  15.0390  15.0746
    15.3518  15.3538  15.9068  15.9144

          k = 0.4444 0.3849 0.0000 (  5968 PWs)   bands (ev):

   -73.8712 -73.8712 -48.7813 -48.7734 -48.7560 -48.7483 -48.6469 -48.6434
   -48.6166 -48.6128 -47.9715 -47.9621 -47.9118 -47.8979 -47.8303 -47.8192
   -47.8100 -47.8021 -47.7679 -47.7601 -47.6371 -47.6324 -45.3136 -45.3049
   -35.6377 -35.6221 -35.4919 -35.4918 -13.3501 -13.2719 -13.0853 -13.0789
    -6.2721  -6.2117  -5.2296  -5.1873  -4.2431  -4.1989  -3.3181  -3.2596
    -2.3536  -2.2323  -1.9925  -1.9187  -0.7328  -0.3722   2.1815   2.4171
     2.6506   3.1164   3.9543   4.0383   4.2350   4.2594   5.2593   5.3307
     7.8332   7.9039   8.4120   8.4255   9.0883   9.1999   9.2798   9.2964
     9.4317   9.4362   9.5389   9.6141   9.7985   9.8654  10.0054  10.0472
    10.2549  10.2631  10.5784  10.6203  10.8070  10.8071  11.3181  11.3539
    11.9869  11.9958  12.1776  12.1966  12.7377  12.8877  13.0048  13.0050
    14.1858  14.2053  14.2721  14.2900  14.5559  14.5915  14.9961  15.0438
    15.5404  15.5579  16.0663  16.0708

          k = 0.4500 0.3753 0.0000 (  5960 PWs)   bands (ev):

   -73.8708 -73.8708 -48.7522 -48.7456 -48.7201 -48.7135 -48.6150 -48.6088
   -48.5908 -48.5844 -47.9414 -47.9333 -47.8946 -47.8797 -47.7987 -47.7835
   -47.7810 -47.7711 -47.7269 -47.7174 -47.6059 -47.6006 -45.3129 -45.3049
   -35.6372 -35.6233 -35.4898 -35.4895 -13.3570 -13.2860 -13.0909 -13.0850
    -6.3028  -6.2484  -5.2170  -5.1789  -4.2506  -4.2102  -3.2962  -3.2443
    -2.2877  -2.2122  -1.9331  -1.8044  -0.7591  -0.4017   2.2006   2.4288
     2.6440   3.0851   3.9671   4.1093   4.1917   4.2828   5.2093   5.2756
     7.7455   7.8212   8.3399   8.3606   9.0217   9.0917   9.2266   9.2519
     9.4035   9.4072   9.5555   9.6008   9.8048   9.8683  10.0185  10.1206
    10.2289  10.2356  10.5549  10.5893  10.7796  10.7798  11.2842  11.3253
    11.9597  11.9683  12.1546  12.1710  12.6882  12.8382  12.9921  12.9926
    14.2017  14.2298  14.3465  14.3472  14.6385  14.6843  14.9420  14.9895
    15.7500  15.7713  16.1562  16.1565

          k = 0.4556 0.3657 0.0000 (  5962 PWs)   bands (ev):

   -73.8710 -73.8709 -48.7686 -48.7621 -48.7255 -48.7177 -48.6323 -48.6258
   -48.5844 -48.5792 -47.9562 -47.9490 -47.9034 -47.8893 -47.8144 -47.8037
   -47.7844 -47.7743 -47.7359 -47.7288 -47.5868 -47.5828 -45.3127 -45.3056
   -35.6373 -35.6250 -35.4885 -35.4880 -13.3628 -13.2993 -13.0959 -13.0907
    -6.3302  -6.2818  -5.2058  -5.1720  -4.2576  -4.2213  -3.2744  -3.2293
    -2.2437  -2.2018  -1.8569  -1.6853  -0.7875  -0.4337   2.2165   2.4273
     2.6502   3.0551   3.9638   4.1206   4.2105   4.3245   5.1604   5.2211
     7.6640   7.7404   8.2606   8.2875   8.9491   8.9951   9.1831   9.2100
     9.3783   9.3816   9.5524   9.5782   9.8038   9.8479  10.0638  10.1804
    10.2139  10.2351  10.5541  10.5704  10.7549  10.7553  11.2539  11.3006
    11.9353  11.9435  12.1324  12.1467  12.6327  12.7819  12.9786  12.9794
    14.2106  14.2396  14.3618  14.3650  14.7848  14.8359  14.8904  14.9296
    15.9609  15.9815  16.1963  16.1976

          k = 0.4611 0.3560 0.0000 (  5962 PWs)   bands (ev):

   -73.8709 -73.8709 -48.7859 -48.7829 -48.7023 -48.6936 -48.6538 -48.6461
   -48.5470 -48.5442 -47.9476 -47.9453 -47.9021 -47.8986 -47.8413 -47.8290
   -47.7905 -47.7782 -47.7091 -47.7048 -47.5868 -47.5832 -45.3126 -45.3062
   -35.6373 -35.6266 -35.4870 -35.4864 -13.3676 -13.3117 -13.1005 -13.0958
    -6.3542  -6.3119  -5.1958  -5.1662  -4.2631  -4.2309  -3.2535  -3.2149
    -2.2169  -2.1962  -1.7685  -1.5657  -0.8178  -0.4682   2.2300   2.4161
     2.6665   3.0265   3.9513   4.0819   4.2799   4.3755   5.1183   5.1728
     7.5903   7.6640   8.1763   8.2074   8.8835   8.9139   9.1486   9.1741
     9.3561   9.3589   9.5397   9.5549   9.7939   9.8244  10.1167  10.1685
    10.2057  10.2884  10.5717  10.5954  10.7329  10.7334  11.2329  11.2844
    11.9137  11.9214  12.1133  12.1259  12.5755  12.7227  12.9653  12.9661
    14.2161  14.2442  14.3574  14.3600  14.8213  14.8696  14.9768  15.0118
    16.1649  16.1819  16.2175  16.2193

          k = 0.4667 0.3464 0.0000 (  5968 PWs)   bands (ev):

   -73.8713 -73.8713 -48.8007 -48.7963 -48.7338 -48.7231 -48.6600 -48.6491
   -48.5915 -48.5859 -47.9528 -47.9497 -47.9324 -47.9296 -47.8543 -47.8407
   -47.7960 -47.7831 -47.7269 -47.7213 -47.6402 -47.6362 -45.3124 -45.3067
   -35.6376 -35.6283 -35.4860 -35.4854 -13.3714 -13.3231 -13.1045 -13.1004
    -6.3748  -6.3385  -5.1870  -5.1617  -4.2687  -4.2409  -3.2335  -3.2012
    -2.2015  -2.1932  -1.6753  -1.4498  -0.8517  -0.5070   2.2413   2.3994
     2.6888   2.9992   3.9364   4.0430   4.3503   4.4290   5.0773   5.1251
     7.5253   7.5937   8.0931   8.1258   8.8326   8.8529   9.1174   9.1400
     9.3369   9.3394   9.5237   9.5330   9.7786   9.8005  10.1351  10.1504
    10.2270  10.3103  10.5978  10.6757  10.7141  10.7155  11.2176  11.2729
    11.8957  11.9028  12.0947  12.1059  12.5137  12.6569  12.9533  12.9540
    14.2192  14.2452  14.3476  14.3496  14.7729  14.8123  15.1584  15.1943
    16.2304  16.2319  16.3597  16.3696

          k = 0.4722 0.3368 0.0000 (  5968 PWs)   bands (ev):

   -73.8713 -73.8713 -48.7975 -48.7928 -48.7333 -48.7225 -48.6586 -48.6477
   -48.5907 -48.5851 -47.9507 -47.9476 -47.9306 -47.9272 -47.8531 -47.8387
[...]
    11.2011  11.2012  11.7618  11.7626  12.5405  12.5408  12.9609  12.9617
    13.3588  13.3592  13.4704  13.4705  14.2129  14.2129  14.3570  14.3572
    14.8275  14.8278  14.9170  14.9171  15.4003  15.4004  15.4288  15.4290
    15.8868  15.8869  16.1956  16.1956

          k = 0.2667 0.1540 0.0000 (  5947 PWs)   bands (ev):

   -73.8736 -73.8736 -48.6921 -48.6916 -48.5566 -48.5538 -48.5444 -48.5411
   -48.4513 -48.4512 -47.8863 -47.8855 -47.7376 -47.7293 -47.6816 -47.6709
   -47.6294 -47.6221 -47.6042 -47.5946 -47.5525 -47.5520 -45.2913 -45.2913
   -35.5518 -35.5518 -35.4704 -35.4704 -14.3310 -14.3300 -13.5261 -13.5250
    -5.2791  -5.2788  -4.5323  -4.5314  -3.8666  -3.8659  -2.5179  -2.5175
    -1.9005  -1.8998  -1.5714  -1.5712  -0.9461  -0.9459   2.0516   2.0529
     2.4197   2.4202   3.0029   3.0040   4.1179   4.1182   5.8093   5.8095
     6.0913   6.0915   6.4534   6.4534   7.3103   7.3105   7.4235   7.4236
     8.2999   8.3001   9.1015   9.1017   9.4169   9.4172   9.8100   9.8104
    11.0567  11.0568  11.8359  11.8367  12.5964  12.5966  13.0407  13.0413
    13.2678  13.2682  13.5821  13.5823  14.1129  14.1130  14.7244  14.7247
    15.0091  15.0094  15.0951  15.0952  15.2932  15.2932  15.6671  15.6672
    15.9790  15.9790  16.1783  16.1783

          k = 0.2500 0.1443 0.0000 (  5955 PWs)   bands (ev):

   -73.8744 -73.8744 -48.6714 -48.6698 -48.6251 -48.6226 -48.5616 -48.5593
   -48.5059 -48.5042 -47.8751 -47.8736 -47.7970 -47.7900 -47.7330 -47.7290
   -47.6892 -47.6818 -47.6327 -47.6275 -47.4625 -47.4620 -45.2895 -45.2895
   -35.5452 -35.5451 -35.4669 -35.4669 -14.4271 -14.4261 -13.5689 -13.5680
    -5.3178  -5.3176  -4.4230  -4.4223  -3.7221  -3.7214  -2.4319  -2.4314
    -1.9079  -1.9071  -1.5701  -1.5699  -0.8682  -0.8678   2.0374   2.0388
     2.4479   2.4485   2.9136   2.9147   4.0429   4.0433   5.6785   5.6788
     5.9435   5.9437   6.3171   6.3171   7.2734   7.2740   7.2881   7.2888
     8.3129   8.3131   9.1890   9.1894   9.3810   9.3812   9.7594   9.7599
    10.9082  10.9083  11.8785  11.8791  12.6378  12.6380  13.0309  13.0310
    13.1951  13.1952  13.6461  13.6463  14.0310  14.0312  14.9048  14.9053
    15.1684  15.1685  15.2798  15.2805  15.4296  15.4300  15.8255  15.8255
    16.0128  16.0129  16.4765  16.4765

          k = 0.2333 0.1347 0.0000 (  5947 PWs)   bands (ev):

   -73.8744 -73.8744 -48.6638 -48.6633 -48.5636 -48.5623 -48.5090 -48.5073
   -48.4734 -48.4725 -47.8655 -47.8654 -47.7224 -47.7180 -47.6805 -47.6730
   -47.6404 -47.6381 -47.5456 -47.5450 -47.5279 -47.5275 -45.2870 -45.2870
   -35.5377 -35.5377 -35.4623 -35.4623 -14.5206 -14.5197 -13.6109 -13.6100
    -5.3876  -5.3873  -4.2812  -4.2806  -3.5780  -3.5775  -2.3443  -2.3437
    -1.9395  -1.9386  -1.5428  -1.5425  -0.7829  -0.7825   2.0343   2.0357
     2.4845   2.4852   2.8348   2.8360   3.9626   3.9630   5.5512   5.5515
     5.8030   5.8033   6.1854   6.1854   7.1516   7.1518   7.2029   7.2031
     8.2906   8.2908   9.2404   9.2409   9.3666   9.3670   9.7849   9.7855
    10.7695  10.7696  11.8862  11.8865  12.6756  12.6762  12.8595  12.8604
    13.2357  13.2361  13.6758  13.6762  14.0116  14.0118  14.9588  14.9590
    15.0470  15.0475  15.6898  15.6905  15.7850  15.7854  15.7973  15.7974
    16.3929  16.3929  16.6966  16.6966

          k = 0.2167 0.1251 0.0000 (  5935 PWs)   bands (ev):

   -73.8742 -73.8742 -48.5954 -48.5941 -48.5413 -48.5375 -48.4671 -48.4657
   -48.4323 -48.4306 -47.7857 -47.7844 -47.7037 -47.7035 -47.6190 -47.6158
   -47.6122 -47.6087 -47.4980 -47.4933 -47.4469 -47.4436 -45.2841 -45.2840
   -35.5313 -35.5312 -35.4561 -35.4561 -14.6109 -14.6101 -13.6515 -13.6507
    -5.4735  -5.4733  -4.1215  -4.1211  -3.4363  -3.4358  -2.2568  -2.2559
    -1.9848  -1.9836  -1.4984  -1.4979  -0.6939  -0.6933   2.0441   2.0457
     2.5264   2.5272   2.7674   2.7686   3.8794   3.8798   5.4286   5.4289
     5.6705   5.6707   6.0590   6.0590   7.0254   7.0256   7.0991   7.0993
     8.2229   8.2230   9.2223   9.2224   9.4039   9.4047   9.8812   9.8819
    10.6457  10.6457  11.8381  11.8383  12.6174  12.6182  12.7649  12.7662
    13.2675  13.2679  13.6717  13.6721  14.0305  14.0305  14.9310  14.9312
    15.0308  15.0317  15.8299  15.8302  16.1338  16.1362  16.1549  16.1573
    16.7418  16.7418  16.7781  16.7783

          k = 0.2000 0.1155 0.0000 (  5947 PWs)   bands (ev):

   -73.8752 -73.8752 -48.6315 -48.6304 -48.5954 -48.5935 -48.5085 -48.5081
   -48.4224 -48.4209 -47.8383 -47.8366 -47.7471 -47.7444 -47.6740 -47.6723
   -47.6099 -47.6066 -47.5482 -47.5376 -47.5177 -47.5106 -45.2824 -45.2824
   -35.5272 -35.5272 -35.4506 -35.4506 -14.6972 -14.6965 -13.6906 -13.6898
    -5.5666  -5.5664  -3.9545  -3.9542  -3.2977  -3.2973  -2.1795  -2.1780
    -2.0289  -2.0271  -1.4462  -1.4456  -0.6061  -0.6054   2.0683   2.0700
     2.5663   2.5673   2.7193   2.7204   3.7918   3.7923   5.3110   5.3113
     5.5461   5.5464   5.9375   5.9375   6.9058   6.9060   6.9711   6.9712
     8.1182   8.1183   9.1485   9.1485   9.4909   9.4917   9.9958   9.9964
    10.5395  10.5396  11.7421  11.7421  12.4574  12.4576  12.7997  12.8005
    13.2422  13.2426  13.6390  13.6393  14.0944  14.0946  14.8239  14.8239
    15.1280  15.1287  15.9522  15.9525  16.3687  16.3690  16.5845  16.5848
    16.8714  16.8716  16.9348  16.9351

          k = 0.1833 0.1058 0.0000 (  5941 PWs)   bands (ev):

   -73.8753 -73.8753 -48.6110 -48.6105 -48.5862 -48.5852 -48.4807 -48.4807
   -48.3604 -48.3597 -47.8327 -47.8313 -47.7285 -47.7255 -47.6535 -47.6511
   -47.5610 -47.5588 -47.5304 -47.5265 -47.4610 -47.4599 -45.2802 -45.2801
   -35.5233 -35.5232 -35.4433 -35.4433 -14.7789 -14.7782 -13.7276 -13.7269
    -5.6609  -5.6607  -3.7845  -3.7842  -3.1632  -3.1628  -2.1541  -2.1527
    -2.0222  -2.0204  -1.3922  -1.3915  -0.5225  -0.5217   2.1090   2.1109
     2.5924   2.5939   2.7059   2.7067   3.7033   3.7037   5.1989   5.1992
     5.4305   5.4308   5.8205   5.8206   6.7926   6.7929   6.8249   6.8252
     7.9950   7.9950   9.0606   9.0606   9.6009   9.6016  10.0811  10.0814
    10.4582  10.4585  11.6409  11.6410  12.3304  12.3305  12.8350  12.8357
    13.1683  13.1686  13.6034  13.6037  14.2123  14.2126  14.7376  14.7377
    15.2749  15.2756  16.1397  16.1400  16.3820  16.3822  16.7401  16.7405
    17.1488  17.1505  17.2024  17.2039

          k = 0.1667 0.0962 0.0000 (  5945 PWs)   bands (ev):

   -73.8759 -73.8759 -48.6004 -48.5996 -48.5345 -48.5318 -48.4979 -48.4953
   -48.4367 -48.4359 -47.7911 -47.7904 -47.7069 -47.7040 -47.6661 -47.6623
   -47.6252 -47.6240 -47.5518 -47.5508 -47.4821 -47.4814 -45.2784 -45.2784
   -35.5208 -35.5208 -35.4362 -35.4362 -14.8554 -14.8548 -13.7623 -13.7616
    -5.7535  -5.7533  -3.6156  -3.6154  -3.0337  -3.0334  -2.1925  -2.1920
    -1.9513  -1.9503  -1.3414  -1.3407  -0.4464  -0.4455   2.1661   2.1682
     2.5966   2.5985   2.7343   2.7349   3.6147   3.6152   5.0921   5.0925
     5.3239   5.3242   5.7073   5.7074   6.6568   6.6569   6.6949   6.6951
     7.8677   7.8677   8.9706   8.9706   9.7011   9.7016  10.0868  10.0870
    10.4115  10.4118  11.5976  11.5977  12.2343  12.2343  12.8262  12.8267
    13.0602  13.0605  13.5585  13.5588  14.3703  14.3706  14.6627  14.6628
    15.4641  15.4647  16.3087  16.3089  16.3680  16.3681  16.6201  16.6202
    17.5787  17.5817  17.6315  17.6343

          k = 0.1500 0.0866 0.0000 (  5933 PWs)   bands (ev):

   -73.8755 -73.8755 -48.5544 -48.5509 -48.5114 -48.5043 -48.4217 -48.4141
   -48.3913 -48.3875 -47.6959 -47.6922 -47.6775 -47.6687 -47.6329 -47.6293
   -47.6197 -47.6167 -47.5069 -47.5045 -47.4061 -47.4053 -45.2758 -45.2758
   -35.5177 -35.5177 -35.4280 -35.4280 -14.9261 -14.9256 -13.7944 -13.7938
    -5.8412  -5.8410  -3.4500  -3.4500  -2.9101  -2.9098  -2.2421  -2.2420
    -1.8695  -1.8689  -1.2969  -1.2962  -0.3786  -0.3777   2.2398   2.2420
     2.6021   2.6043   2.7821   2.7826   3.5280   3.5286   4.9905   4.9909
     5.2265   5.2268   5.5974   5.5974   6.4876   6.4877   6.5987   6.5987
     7.7463   7.7464   8.8830   8.8830   9.7709   9.7710  10.0104  10.0107
    10.4103  10.4103  11.6588  11.6588  12.1631  12.1632  12.7303  12.7306
    13.0062  13.0063  13.5056  13.5059  14.5636  14.5639  14.5999  14.6000
    15.6847  15.6852  16.2506  16.2507  16.4337  16.4343  16.6462  16.6467
    17.9020  17.9036  18.1262  18.1278

          k = 0.1333 0.0770 0.0000 (  5943 PWs)   bands (ev):

   -73.8765 -73.8765 -48.5577 -48.5504 -48.5482 -48.5394 -48.4425 -48.4353
   -48.4295 -48.4239 -47.7268 -47.7227 -47.7085 -47.7036 -47.6645 -47.6645
   -47.6244 -47.6242 -47.5475 -47.5441 -47.5120 -47.5092 -45.2744 -45.2744
   -35.5162 -35.5161 -35.4219 -35.4219 -14.9907 -14.9902 -13.8237 -13.8232
    -5.9233  -5.9231  -3.2916  -3.2916  -2.7947  -2.7943  -2.2889  -2.2887
    -1.7907  -1.7902  -1.2615  -1.2608  -0.3213  -0.3204   2.3271   2.3296
     2.6190   2.6215   2.8345   2.8351   3.4442   3.4449   4.8928   4.8933
     5.1382   5.1386   5.4893   5.4893   6.3166   6.3167   6.5123   6.5123
     7.6357   7.6358   8.7986   8.7986   9.7232   9.7234   9.9211   9.9214
    10.4634  10.4638  11.7836  11.7836  12.1199  12.1199  12.5775  12.5776
    12.9863  12.9864  13.4352  13.4357  14.5258  14.5259  14.7804  14.7806
    15.8809  15.8811  16.1846  16.1851  16.3521  16.3532  16.8897  16.8902
    17.8001  17.8009  18.5297  18.5298

          k = 0.1167 0.0674 0.0000 (  5951 PWs)   bands (ev):

   -73.8773 -73.8773 -48.5713 -48.5704 -48.5509 -48.5483 -48.5234 -48.5213
   -48.4249 -48.4244 -47.7387 -47.7333 -47.7239 -47.7156 -47.7029 -47.7021
   -47.6564 -47.6500 -47.6023 -47.5999 -47.5413 -47.5411 -45.2737 -45.2737
   -35.5154 -35.5154 -35.4163 -35.4163 -15.0486 -15.0481 -13.8501 -13.8497
    -5.9977  -5.9976  -3.1432  -3.1431  -2.6908  -2.6904  -2.3257  -2.3253
    -1.7184  -1.7180  -1.2354  -1.2348  -0.2737  -0.2728   2.4248   2.4277
     2.6507   2.6535   2.8856   2.8862   3.3687   3.3695   4.7978   4.7983
     5.0594   5.0598   5.3829   5.3830   6.1544   6.1544   6.4352   6.4352
     7.5382   7.5382   8.7177   8.7177   9.5465   9.5467   9.8838   9.8839
    10.5760  10.5766  11.8811  11.8811  12.1704  12.1704  12.4235  12.4236
    12.9636  12.9637  13.3529  13.3536  14.4711  14.4713  15.0030  15.0031
    15.9140  15.9141  16.1189  16.1197  16.4554  16.4571  17.1464  17.1470
    17.4798  17.4804  18.4598  18.4599

          k = 0.1000 0.0577 0.0000 (  5955 PWs)   bands (ev):

   -73.8778 -73.8778 -48.5974 -48.5965 -48.5879 -48.5869 -48.5332 -48.5330
   -48.4041 -48.4040 -47.7709 -47.7684 -47.7478 -47.7452 -47.7209 -47.7192
   -47.6921 -47.6900 -47.5826 -47.5823 -47.5400 -47.5399 -45.2726 -45.2726
   -35.5146 -35.5146 -35.4105 -35.4105 -15.0994 -15.0991 -13.8733 -13.8729
    -6.0637  -6.0636  -3.0078  -3.0076  -2.6073  -2.6066  -2.3427  -2.3419
    -1.6568  -1.6563  -1.2177  -1.2172  -0.2353  -0.2344   2.5281   2.5314
     2.6963   2.6995   2.9322   2.9329   3.3055   3.3063   4.7032   4.7037
     4.9902   4.9907   5.2790   5.2790   6.0090   6.0090   6.3673   6.3673
     7.4546   7.4546   8.6388   8.6388   9.3386   9.3387   9.8495   9.8496
    10.7282  10.7289  11.8788  11.8788  12.2473  12.2477  12.4094  12.4099
    12.9271  12.9272  13.2622  13.2631  14.4253  14.4254  15.2111  15.2112
    15.8125  15.8125  16.0665  16.0673  16.6855  16.6876  17.1547  17.1562
    17.4344  17.4345  18.3783  18.3783

          k = 0.0833 0.0481 0.0000 (  5959 PWs)   bands (ev):

   -73.8784 -73.8784 -48.6058 -48.6048 -48.5823 -48.5802 -48.5394 -48.5374
   -48.4746 -48.4736 -47.7800 -47.7786 -47.7538 -47.7532 -47.7212 -47.7154
   -47.6798 -47.6729 -47.6308 -47.6266 -47.5711 -47.5700 -45.2715 -45.2715
   -35.5142 -35.5141 -35.4052 -35.4052 -15.1430 -15.1427 -13.8931 -13.8928
    -6.1209  -6.1208  -2.8892  -2.8890  -2.5587  -2.5579  -2.3237  -2.3227
    -1.6088  -1.6083  -1.2051  -1.2047  -0.2061  -0.2053   2.6282   2.6316
     2.7536   2.7570   2.9707   2.9713   3.2621   3.2630   4.6072   4.6077
     4.9309   4.9313   5.1807   5.1808   5.8853   5.8854   6.3090   6.3090
     7.3835   7.3835   8.5592   8.5592   9.1426   9.1427   9.8111   9.8111
    10.9016  10.9023  11.8461  11.8462  12.1201  12.1204  12.6621  12.6629
    12.8730  12.8733  13.1677  13.1688  14.4012  14.4013  15.3741  15.3742
    15.6878  15.6878  15.9987  15.9993  16.7529  16.7547  17.1454  17.1466
    17.6934  17.6936  18.2805  18.2807

          k = 0.0667 0.0385 0.0000 (  5967 PWs)   bands (ev):

   -73.8791 -73.8791 -48.6524 -48.6495 -48.6300 -48.6246 -48.5503 -48.5450
   -48.4943 -48.4915 -47.8451 -47.8449 -47.7982 -47.7976 -47.7268 -47.7239
   -47.6902 -47.6836 -47.6576 -47.6524 -47.5960 -47.5949 -45.2715 -45.2715
   -35.5139 -35.5139 -35.4020 -35.4020 -15.1790 -15.1788 -13.9095 -13.9092
    -6.1681  -6.1680  -2.7899  -2.7897  -2.5454  -2.5446  -2.2700  -2.2691
    -1.5783  -1.5778  -1.1951  -1.1949  -0.1838  -0.1831   2.7089   2.7115
     2.8238   2.8263   2.9991   2.9996   3.2420   3.2426   4.5092   4.5096
     4.8816   4.8820   5.0936   5.0937   5.7873   5.7873   6.2604   6.2605
     7.3263   7.3263   8.4761   8.4762   8.9810   8.9810   9.7762   9.7762
    11.0833  11.0840  11.8123  11.8124  12.0030  12.0032  12.7566  12.7570
    12.9720  12.9734  13.1008  13.1033  14.3792  14.3793  15.4481  15.4484
    15.5742  15.5745  15.8526  15.8529  16.7370  16.7377  17.4066  17.4070
    17.9287  17.9288  18.2015  18.2022

          k = 0.0500 0.0289 0.0000 (  5965 PWs)   bands (ev):

   -73.8791 -73.8791 -48.6633 -48.6630 -48.5710 -48.5707 -48.5489 -48.5468
   -48.5018 -48.5001 -47.8619 -47.8616 -47.7462 -47.7439 -47.7054 -47.7022
   -47.6926 -47.6922 -47.6531 -47.6512 -47.6059 -47.6056 -45.2708 -45.2708
   -35.5135 -35.5135 -35.3982 -35.3982 -15.2072 -15.2070 -13.9223 -13.9221
    -6.2052  -6.2052  -2.7146  -2.7145  -2.5447  -2.5441  -2.2044  -2.2037
    -1.5646  -1.5642  -1.1848  -1.1847  -0.1678  -0.1672   2.7583   2.7594
     2.9032   2.9043   3.0227   3.0229   3.2461   3.2465   4.4125   4.4128
     4.8425   4.8429   5.0229   5.0231   5.7141   5.7141   6.2219   6.2219
     7.2820   7.2820   8.3918   8.3918   8.8629   8.8629   9.7467   9.7467
    11.2643  11.2650  11.7844  11.7844  11.9290  11.9292  12.6362  12.6362
    13.0073  13.0077  13.3276  13.3286  14.3659  14.3660  15.3563  15.3571
    15.4791  15.4799  15.7084  15.7086  16.8809  16.8812  17.6727  17.6731
    18.0592  18.0594  18.2133  18.2153

          k = 0.0333 0.0192 0.0000 (  5973 PWs)   bands (ev):

   -73.8797 -73.8797 -48.7212 -48.7208 -48.5986 -48.5970 -48.5714 -48.5694
   -48.5094 -48.5084 -47.9205 -47.9204 -47.7554 -47.7544 -47.7422 -47.7418
   -47.7099 -47.7098 -47.6804 -47.6799 -47.6348 -47.6339 -45.2711 -45.2711
   -35.5137 -35.5137 -35.3965 -35.3965 -15.2275 -15.2273 -13.9315 -13.9314
    -6.2320  -6.2320  -2.6683  -2.6683  -2.5404  -2.5399  -2.1455  -2.1450
    -1.5645  -1.5642  -1.1753  -1.1753  -0.1571  -0.1567   2.7796   2.7798
     2.9712   2.9715   3.0466   3.0466   3.2648   3.2650   4.3259   4.3261
     4.8142   4.8144   4.9718   4.9719   5.6635   5.6635   6.1939   6.1939
     7.2503   7.2503   8.3159   8.3159   8.7863   8.7864   9.7245   9.7245
    11.4224  11.4230  11.7647  11.7648  11.8905  11.8907  12.4832  12.4833
    12.9713  12.9714  13.6630  13.6635  14.3532  14.3533  15.0736  15.0738
    15.4083  15.4087  15.6666  15.6667  17.1215  17.1217  17.8471  17.8472
    18.1018  18.1026  18.1861  18.1865

          k = 0.0167 0.0096 0.0000 (  5981 PWs)   bands (ev):

   -73.8803 -73.8803 -48.7791 -48.7788 -48.6114 -48.6086 -48.5781 -48.5740
   -48.5495 -48.5479 -47.9776 -47.9776 -47.7762 -47.7754 -47.7475 -47.7428
   -47.7347 -47.7312 -47.7077 -47.7050 -47.6919 -47.6896 -45.2713 -45.2713
   -35.5142 -35.5142 -35.3955 -35.3955 -15.2397 -15.2396 -13.9371 -13.9370
    -6.2482  -6.2482  -2.6482  -2.6482  -2.5307  -2.5305  -2.1047  -2.1045
    -1.5700  -1.5698  -1.1683  -1.1683  -0.1512  -0.1510   2.7859   2.7860
     3.0111   3.0111   3.0702   3.0703   3.2859   3.2859   4.2635   4.2636
     4.7969   4.7971   4.9413   4.9413   5.6338   5.6338   6.1768   6.1768
     7.2312   7.2312   8.2634   8.2634   8.7454   8.7454   9.7104   9.7104
    11.5166  11.5170  11.7540  11.7540  11.9254  11.9255  12.3236  12.3238
    12.9496  12.9496  14.0111  14.0114  14.3484  14.3485  14.7290  14.7290
    15.3661  15.3662  15.6569  15.6569  17.3776  17.3778  17.8914  17.8915
    18.1609  18.1621  18.1703  18.1712

          k = 0.0000 0.0000 0.0000 (  5987 PWs)   bands (ev):

   -73.8806 -73.8806 -48.7653 -48.7653 -48.6812 -48.6812 -48.6272 -48.6272
   -48.5333 -48.5333 -47.9702 -47.9702 -47.8467 -47.8467 -47.7866 -47.7866
   -47.7821 -47.7821 -47.7033 -47.7033 -47.6700 -47.6700 -45.2714 -45.2714
   -35.5142 -35.5142 -35.3957 -35.3957 -15.2437 -15.2437 -13.9389 -13.9389
    -6.2536  -6.2536  -2.6430  -2.6430  -2.5254  -2.5254  -2.0898  -2.0898
    -1.5735  -1.5735  -1.1663  -1.1663  -0.1493  -0.1493   2.7858   2.7858
     3.0224   3.0224   3.0808   3.0808   3.2944   3.2944   4.2405   4.2405
     4.7911   4.7911   4.9312   4.9312   5.6241   5.6241   6.1710   6.1710
     7.2248   7.2248   8.2437   8.2437   8.7301   8.7301   9.7057   9.7057
    11.5460  11.5460  11.7496  11.7496  11.9822  11.9822  12.2321  12.2321
    12.9425  12.9425  14.3147  14.3147  14.3593  14.3593  14.3903  14.3903
    15.3520  15.3520  15.6539  15.6539  17.5192  17.5192  17.8947  17.8947
    18.1509  18.1509  18.1607  18.1607

     Writing all to output data dir ./WSe2.save/
 
     init_run     :      0.12s CPU      0.17s WALL (       1 calls)
     electrons    :     28.11s CPU     28.76s WALL (       1 calls)

     Called by init_run:
     wfcinit      :      0.00s CPU      0.01s WALL (       1 calls)
     wfcinit:atom :      0.01s CPU      0.01s WALL (      13 calls)
     wfcinit:wfcr :      0.92s CPU      0.96s WALL (      13 calls)
     potinit      :      0.01s CPU      0.03s WALL (       1 calls)
     hinit0       :      0.07s CPU      0.08s WALL (       1 calls)

     Called by electrons:
     c_bands      :     28.10s CPU     28.75s WALL (       1 calls)
     v_of_rho     :      0.01s CPU      0.01s WALL (       1 calls)
     v_h          :      0.00s CPU      0.00s WALL (       1 calls)
     v_xc         :      0.01s CPU      0.01s WALL (       1 calls)

     Called by c_bands:
     init_us_2    :      0.01s CPU      0.02s WALL (      13 calls)
     init_us_2:cp :      0.01s CPU      0.02s WALL (      13 calls)
     cegterg      :     21.19s CPU     21.72s WALL (      23 calls)

     Called by sum_band:

     Called by *egterg:
     cdiaghg      :      7.05s CPU      7.29s WALL (     377 calls)
     cegterg:over :      2.40s CPU      2.42s WALL (     364 calls)
     cegterg:upda :      2.16s CPU      2.23s WALL (     364 calls)
     cegterg:last :      1.08s CPU      1.09s WALL (      62 calls)
     cdiaghg:chol :      0.51s CPU      0.53s WALL (     377 calls)
     cdiaghg:inve :      0.20s CPU      0.20s WALL (     377 calls)
     cdiaghg:para :      1.49s CPU      1.53s WALL (     754 calls)
     h_psi        :      8.92s CPU      9.13s WALL (     400 calls)
     g_psi        :      0.08s CPU      0.09s WALL (     364 calls)

     Called by h_psi:
     h_psi:calbec :      0.62s CPU      0.64s WALL (     400 calls)
     vloc_psi     :      7.24s CPU      7.41s WALL (     400 calls)
     add_vuspsi   :      0.95s CPU      0.95s WALL (     400 calls)

     General routines
     calbec       :      0.62s CPU      0.64s WALL (     400 calls)
     fft          :      0.01s CPU      0.02s WALL (      14 calls)
     fftw         :      6.08s CPU      6.23s WALL (   66140 calls)
     davcio       :      0.00s CPU      0.04s WALL (      26 calls)
 
     Parallel routines
 
     PWSCF        :     28.68s CPU     30.38s WALL

 
   This run was terminated on:  17:47:31   3Sep2022            

=------------------------------------------------------------------------------=
   JOB DONE.
=------------------------------------------------------------------------------=
TACC:  Shutdown complete. Exiting. 
