TACC:  Starting up job 4791485 
TACC:  Starting parallel tasks... 

     Program PWSCF v.7.0 starts on  3Sep2022 at 17:46:50 

     This program is part of the open-source Quantum ESPRESSO suite
     for quantum simulation of materials; please cite
         "P. Giannozzi et al., J. Phys.:Condens. Matter 21 395502 (2009);
         "P. Giannozzi et al., J. Phys.:Condens. Matter 29 465901 (2017);
         "P. Giannozzi et al., J. Chem. Phys. 152 154105 (2020);
          URL http://www.quantum-espresso.org", 
     in publications or presentations arising from this work. More details at
     http://www.quantum-espresso.org/quote

     Parallel version (MPI & OpenMP), running on      56 processor cores
     Number of MPI processes:                56
     Threads/MPI process:                     1

     MPI processes distributed on     1 nodes
     K-points division:     npool     =       7
     R & G space division:  proc/nbgrp/npool/nimage =       8
     173594 MiB available memory on the printing compute node when the environment starts
 
     Reading input from pw.scf.in

     Current dimensions of program PWSCF are:
     Max number of different atomic species (ntypx) = 10
     Max number of k-points (npk) =  40000
     Max angular momentum in pseudopotentials (lmaxx) =  4
     Message from routine setup:
     using ibrav=0 with symmetry is DISCOURAGED, use correct ibrav instead

     Subspace diagonalization in iterative solution of the eigenvalue problem:
     one sub-group per band group will be used
     ELPA distributed-memory algorithm (size of sub-group:  2*  2 procs)

 
     Parallelization info
     --------------------
     sticks:   dense  smooth     PW     G-vecs:    dense   smooth      PW
     Min          53      53     15                 5953     5953    1019
     Max          56      56     16                 5964     5964    1046
     Sum         433     433    127                47651    47651    8247
 
     Using Slab Decomposition
 


     bravais-lattice index     =            0
     lattice parameter (alat)  =       6.2172  a.u.
     unit-cell volume          =    1391.6874 (a.u.)^3
     number of atoms/cell      =            3
     number of atomic types    =            2
     number of electrons       =        46.00
     number of Kohn-Sham states=           46
     kinetic-energy cutoff     =      40.0000  Ry
     charge density cutoff     =     160.0000  Ry
     scf convergence threshold =      1.0E-06
     mixing beta               =       0.3000
     number of iterations used =            8  plain     mixing
     Exchange-correlation= PBE
                           (   1   4   3   4   0   0   0)
     Non magnetic calculation with spin-orbit


     celldm(1)=   6.217199  celldm(2)=   0.000000  celldm(3)=   0.000000
     celldm(4)=   0.000000  celldm(5)=   0.000000  celldm(6)=   0.000000

     crystal axes: (cart. coord. in units of alat)
               a(1) = (   1.000000   0.000000   0.000000 )  
               a(2) = (   0.500000   0.866025   0.000000 )  
               a(3) = (   0.000000   0.000000   6.686930 )  

     reciprocal axes: (cart. coord. in units 2 pi/alat)
               b(1) = (  1.000000 -0.577350  0.000000 )  
               b(2) = (  0.000000  1.154701  0.000000 )  
               b(3) = (  0.000000  0.000000  0.149545 )  


     PseudoPot. # 1 for W  read from file:
     ./W.upf
     MD5 check sum: 75b1d432d85d028982bb81b068264ebf
     Pseudo is Norm-conserving + core correction, Zval = 14.0
     Generated using ONCVPSP code by D. R. Hamann
     Using radial grid of 1396 points, 14 beta functions with: 
                l(1) =   0
                l(2) =   0
                l(3) =   1
                l(4) =   1
                l(5) =   1
                l(6) =   1
                l(7) =   2
                l(8) =   2
                l(9) =   2
               l(10) =   2
               l(11) =   3
               l(12) =   3
               l(13) =   3
               l(14) =   3

     PseudoPot. # 2 for Se read from file:
     ./Se.upf
     MD5 check sum: cb2cefba1335ec1a0ef320de5a6fd81a
     Pseudo is Norm-conserving + core correction, Zval = 16.0
     Generated using ONCVPSP code by D. R. Hamann
     Using radial grid of 1214 points, 10 beta functions with: 
                l(1) =   0
                l(2) =   0
                l(3) =   1
                l(4) =   1
                l(5) =   1
                l(6) =   1
                l(7) =   2
                l(8) =   2
                l(9) =   2
               l(10) =   2

     atomic species   valence    mass     pseudopotential
        W             14.00   183.84000     W ( 1.00)
        Se            16.00    78.96000     Se( 1.00)

      6 Sym. Ops. (no inversion) found


                                    s                        frac. trans.

      isym =  1     identity                                     

 cryst.   s( 1) = (     1          0          0      )
                  (     0          1          0      )
                  (     0          0          1      )

 cart.    s( 1) = (  1.0000000  0.0000000  0.0000000 )
                  (  0.0000000  1.0000000  0.0000000 )
                  (  0.0000000  0.0000000  1.0000000 )


      isym =  2     120 deg rotation - cryst. axis [0,0,1]       

 cryst.   s( 2) = (    -1          1          0      )
                  (    -1          0          0      )
                  (     0          0          1      )

 cart.    s( 2) = ( -0.5000000 -0.8660254  0.0000000 )
                  (  0.8660254 -0.5000000  0.0000000 )
                  (  0.0000000  0.0000000  1.0000000 )


      isym =  3     120 deg rotation - cryst. axis [0,0,-1]      

 cryst.   s( 3) = (     0         -1          0      )
                  (     1         -1          0      )
                  (     0          0          1      )

 cart.    s( 3) = ( -0.5000000  0.8660254  0.0000000 )
                  ( -0.8660254 -0.5000000  0.0000000 )
                  (  0.0000000  0.0000000  1.0000000 )


      isym =  4     inv. 180 deg rotation - cart. axis [1,0,0]   

 cryst.   s( 4) = (    -1          0          0      )
                  (    -1          1          0      )
                  (     0          0          1      )

 cart.    s( 4) = ( -1.0000000  0.0000000  0.0000000 )
                  (  0.0000000  1.0000000  0.0000000 )
                  (  0.0000000  0.0000000  1.0000000 )


      isym =  5     inv. 180 deg rotation - cryst. axis [0,1,0]  

 cryst.   s( 5) = (     0          1          0      )
                  (     1          0          0      )
                  (     0          0          1      )

 cart.    s( 5) = (  0.5000000  0.8660254  0.0000000 )
                  (  0.8660254 -0.5000000  0.0000000 )
                  (  0.0000000  0.0000000  1.0000000 )


      isym =  6     inv. 180 deg rotation - cryst. axis [1,1,0]  

 cryst.   s( 6) = (     1         -1          0      )
                  (     0         -1          0      )
                  (     0          0          1      )

 cart.    s( 6) = (  0.5000000 -0.8660254  0.0000000 )
                  ( -0.8660254 -0.5000000  0.0000000 )
                  (  0.0000000  0.0000000  1.0000000 )


   Cartesian axes

     site n.     atom                  positions (alat units)
         1           W   tau(   1) = (   0.0000000   0.0000000   1.7901288  )
         2           Se  tau(   2) = (   1.0000000   0.5773503   1.2903416  )
         3           Se  tau(   3) = (   1.0000000   0.5773503   2.2899161  )

   Crystallographic axes

     site n.     atom                  positions (cryst. coord.)
         1           W   tau(   1) = (  0.0000000  0.0000000  0.2677056  )
         2           Se  tau(   2) = (  0.6666667  0.6666667  0.1929647  )
         3           Se  tau(   3) = (  0.6666667  0.6666667  0.3424465  )

     number of k points=    19
                       cart. coord. in units 2pi/alat
        k(    1) = (   0.0000000   0.0000000   0.0000000), wk =   0.0069444
        k(    2) = (   0.0000000   0.0962250   0.0000000), wk =   0.0416667
        k(    3) = (   0.0000000   0.1924501   0.0000000), wk =   0.0416667
        k(    4) = (   0.0000000   0.2886751   0.0000000), wk =   0.0416667
        k(    5) = (   0.0000000   0.3849002   0.0000000), wk =   0.0416667
        k(    6) = (   0.0000000   0.4811252   0.0000000), wk =   0.0416667
        k(    7) = (   0.0000000  -0.5773503   0.0000000), wk =   0.0208333
        k(    8) = (   0.0833333   0.1443376   0.0000000), wk =   0.0416667
        k(    9) = (   0.0833333   0.2405626   0.0000000), wk =   0.0833333
        k(   10) = (   0.0833333   0.3367877   0.0000000), wk =   0.0833333
        k(   11) = (   0.0833333   0.4330127   0.0000000), wk =   0.0833333
        k(   12) = (   0.0833333  -0.6254628   0.0000000), wk =   0.0833333
        k(   13) = (   0.1666667   0.2886751   0.0000000), wk =   0.0416667
        k(   14) = (   0.1666667   0.3849002   0.0000000), wk =   0.0833333
        k(   15) = (   0.1666667  -0.6735753   0.0000000), wk =   0.0833333
        k(   16) = (   0.1666667  -0.5773503   0.0000000), wk =   0.0416667
        k(   17) = (   0.2500000  -0.7216878   0.0000000), wk =   0.0416667
        k(   18) = (   0.2500000  -0.6254628   0.0000000), wk =   0.0833333
        k(   19) = (   0.3333333  -0.5773503   0.0000000), wk =   0.0138889

                       cryst. coord.
        k(    1) = (   0.0000000   0.0000000   0.0000000), wk =   0.0069444
        k(    2) = (   0.0000000   0.0833333   0.0000000), wk =   0.0416667
        k(    3) = (   0.0000000   0.1666667   0.0000000), wk =   0.0416667
        k(    4) = (   0.0000000   0.2500000   0.0000000), wk =   0.0416667
        k(    5) = (   0.0000000   0.3333333   0.0000000), wk =   0.0416667
        k(    6) = (   0.0000000   0.4166667   0.0000000), wk =   0.0416667
        k(    7) = (   0.0000000  -0.5000000   0.0000000), wk =   0.0208333
        k(    8) = (   0.0833333   0.1666667   0.0000000), wk =   0.0416667
        k(    9) = (   0.0833333   0.2500000   0.0000000), wk =   0.0833333
        k(   10) = (   0.0833333   0.3333333   0.0000000), wk =   0.0833333
        k(   11) = (   0.0833333   0.4166667   0.0000000), wk =   0.0833333
        k(   12) = (   0.0833333  -0.5000000   0.0000000), wk =   0.0833333
        k(   13) = (   0.1666667   0.3333333   0.0000000), wk =   0.0416667
        k(   14) = (   0.1666667   0.4166667   0.0000000), wk =   0.0833333
        k(   15) = (   0.1666667  -0.5000000   0.0000000), wk =   0.0833333
        k(   16) = (   0.1666667  -0.4166667   0.0000000), wk =   0.0416667
        k(   17) = (   0.2500000  -0.5000000   0.0000000), wk =   0.0416667
        k(   18) = (   0.2500000  -0.4166667   0.0000000), wk =   0.0833333
        k(   19) = (   0.3333333  -0.3333333   0.0000000), wk =   0.0138889

     Dense  grid:    47651 G-vectors     FFT dimensions: (  25,  25, 180)

     Dynamical RAM for                 wfc:       1.04 MB

     Dynamical RAM for     wfc (w. buffer):       4.17 MB

     Dynamical RAM for           str. fact:       0.18 MB

     Dynamical RAM for           local pot:       0.00 MB

     Dynamical RAM for          nlocal pot:       1.47 MB

     Dynamical RAM for                qrad:      14.22 MB

     Dynamical RAM for          rho,v,vnew:       2.41 MB

     Dynamical RAM for               rhoin:       0.80 MB

     Dynamical RAM for            rho*nmix:       5.81 MB

     Dynamical RAM for           G-vectors:       0.39 MB

     Dynamical RAM for          h,s,v(r/c):       0.39 MB

     Dynamical RAM for          <psi|beta>:       0.18 MB

     Dynamical RAM for                 psi:       4.17 MB

     Dynamical RAM for                hpsi:       4.17 MB

     Dynamical RAM for      wfcinit/wfcrot:       1.98 MB

     Estimated static dynamical RAM per process >      24.79 MB

     Estimated max dynamical RAM per process >      39.52 MB

     Estimated total dynamical RAM >       1.89 GB

     Initial potential from superposition of free atoms

     starting charge      45.9993, renormalised to      46.0000

     negative rho (up, down):  7.446E-02 0.000E+00
     Starting wfcs are   56 randomized atomic wfcs

     total cpu time spent up to now is        0.9 secs

     Self-consistent Calculation

     iteration #  1     ecut=    40.00 Ry     beta= 0.30
     Davidson diagonalization with overlap

---- Real-time Memory Report at c_bands before calling an iterative solver
           270 MiB given to the printing process from OS
             0 MiB allocation reported by mallinfo(arena+hblkhd)
        170664 MiB available memory on the node where the printing process lives
------------------
     ethr =  1.00E-02,  avg # of iterations =  2.0

     negative rho (up, down):  4.982E-02 0.000E+00

     total cpu time spent up to now is        1.4 secs

     total energy              =    -628.42461588 Ry
     estimated scf accuracy    <       1.45248194 Ry

     iteration #  2     ecut=    40.00 Ry     beta= 0.30
     Davidson diagonalization with overlap

---- Real-time Memory Report at c_bands before calling an iterative solver
           295 MiB given to the printing process from OS
             0 MiB allocation reported by mallinfo(arena+hblkhd)
        169932 MiB available memory on the node where the printing process lives
------------------
     ethr =  3.16E-03,  avg # of iterations =  1.0

     negative rho (up, down):  7.812E-03 0.000E+00

     total cpu time spent up to now is        1.7 secs

     total energy              =    -628.06487370 Ry
     estimated scf accuracy    <       0.58571433 Ry

     iteration #  3     ecut=    40.00 Ry     beta= 0.30
     Davidson diagonalization with overlap

---- Real-time Memory Report at c_bands before calling an iterative solver
           302 MiB given to the printing process from OS
             0 MiB allocation reported by mallinfo(arena+hblkhd)
        169831 MiB available memory on the node where the printing process lives
------------------
     ethr =  1.27E-03,  avg # of iterations =  2.0

     negative rho (up, down):  2.018E-03 0.000E+00

     total cpu time spent up to now is        2.1 secs

     total energy              =    -628.12131983 Ry
     estimated scf accuracy    <       0.02447281 Ry

     iteration #  4     ecut=    40.00 Ry     beta= 0.30
     Davidson diagonalization with overlap

---- Real-time Memory Report at c_bands before calling an iterative solver
           308 MiB given to the printing process from OS
             0 MiB allocation reported by mallinfo(arena+hblkhd)
        169734 MiB available memory on the node where the printing process lives
------------------
     ethr =  5.32E-05,  avg # of iterations =  3.8

     negative rho (up, down):  1.246E-03 0.000E+00

     total cpu time spent up to now is        2.6 secs

     total energy              =    -628.12255841 Ry
     estimated scf accuracy    <       0.00945472 Ry

     iteration #  5     ecut=    40.00 Ry     beta= 0.30
     Davidson diagonalization with overlap

---- Real-time Memory Report at c_bands before calling an iterative solver
           325 MiB given to the printing process from OS
             0 MiB allocation reported by mallinfo(arena+hblkhd)
        169505 MiB available memory on the node where the printing process lives
------------------
     ethr =  2.06E-05,  avg # of iterations =  4.6

     negative rho (up, down):  2.899E-06 0.000E+00

     total cpu time spent up to now is        3.2 secs

     total energy              =    -628.11835234 Ry
     estimated scf accuracy    <       0.03514508 Ry

     iteration #  6     ecut=    40.00 Ry     beta= 0.30
     Davidson diagonalization with overlap

---- Real-time Memory Report at c_bands before calling an iterative solver
           337 MiB given to the printing process from OS
             0 MiB allocation reported by mallinfo(arena+hblkhd)
        169358 MiB available memory on the node where the printing process lives
------------------
     ethr =  2.06E-05,  avg # of iterations =  4.3

     negative rho (up, down):  1.316E-08 0.000E+00

     total cpu time spent up to now is        3.7 secs

     total energy              =    -628.12645040 Ry
     estimated scf accuracy    <       0.00505189 Ry

     iteration #  7     ecut=    40.00 Ry     beta= 0.30
     Davidson diagonalization with overlap

---- Real-time Memory Report at c_bands before calling an iterative solver
           342 MiB given to the printing process from OS
             0 MiB allocation reported by mallinfo(arena+hblkhd)
        169273 MiB available memory on the node where the printing process lives
------------------
     ethr =  1.10E-05,  avg # of iterations =  1.0

     total cpu time spent up to now is        4.1 secs

     total energy              =    -628.12492093 Ry
     estimated scf accuracy    <       0.00406743 Ry

     iteration #  8     ecut=    40.00 Ry     beta= 0.30
     Davidson diagonalization with overlap

---- Real-time Memory Report at c_bands before calling an iterative solver
           342 MiB given to the printing process from OS
             0 MiB allocation reported by mallinfo(arena+hblkhd)
        169259 MiB available memory on the node where the printing process lives
------------------
     ethr =  8.84E-06,  avg # of iterations =  3.9

     total cpu time spent up to now is        4.6 secs

     total energy              =    -628.12607596 Ry
     estimated scf accuracy    <       0.00119247 Ry

     iteration #  9     ecut=    40.00 Ry     beta= 0.30
     Davidson diagonalization with overlap

---- Real-time Memory Report at c_bands before calling an iterative solver
           346 MiB given to the printing process from OS
             0 MiB allocation reported by mallinfo(arena+hblkhd)
        169231 MiB available memory on the node where the printing process lives
------------------
     ethr =  2.59E-06,  avg # of iterations =  1.0

     total cpu time spent up to now is        4.9 secs

     total energy              =    -628.12583005 Ry
     estimated scf accuracy    <       0.00085717 Ry

     iteration # 10     ecut=    40.00 Ry     beta= 0.30
     Davidson diagonalization with overlap

---- Real-time Memory Report at c_bands before calling an iterative solver
           350 MiB given to the printing process from OS
             0 MiB allocation reported by mallinfo(arena+hblkhd)
        169264 MiB available memory on the node where the printing process lives
------------------
     ethr =  1.86E-06,  avg # of iterations =  3.3

     total cpu time spent up to now is        5.4 secs

     total energy              =    -628.12599170 Ry
     estimated scf accuracy    <       0.00004054 Ry

     iteration # 11     ecut=    40.00 Ry     beta= 0.30
     Davidson diagonalization with overlap

---- Real-time Memory Report at c_bands before calling an iterative solver
           350 MiB given to the printing process from OS
             0 MiB allocation reported by mallinfo(arena+hblkhd)
        169243 MiB available memory on the node where the printing process lives
------------------
     ethr =  8.81E-08,  avg # of iterations =  3.9

     total cpu time spent up to now is        5.9 secs

     End of self-consistent calculation

          k = 0.0000 0.0000 0.0000 (  5987 PWs)   bands (ev):

   -73.8758 -73.8758 -48.7635 -48.7635 -48.6803 -48.6803 -48.6256 -48.6256
   -48.5324 -48.5324 -47.9686 -47.9686 -47.8457 -47.8457 -47.7850 -47.7850
   -47.7803 -47.7803 -47.7025 -47.7025 -47.6689 -47.6689 -45.2663 -45.2663
   -35.5092 -35.5092 -35.3899 -35.3899 -15.2401 -15.2401 -13.9366 -13.9366
    -6.2498  -6.2498  -2.6369  -2.6369  -2.5205  -2.5205  -2.0872  -2.0872
    -1.5692  -1.5692  -1.1620  -1.1620  -0.1459  -0.1459

     occupation numbers 
     1.0000   1.0000   1.0000   1.0000   1.0000   1.0000   1.0000   1.0000
     1.0000   1.0000   1.0000   1.0000   1.0000   1.0000   1.0000   1.0000
     1.0000   1.0000   1.0000   1.0000   1.0000   1.0000   1.0000   1.0000
     1.0000   1.0000   1.0000   1.0000   1.0000   1.0000   1.0000   1.0000
     1.0000   1.0000   1.0000   1.0000   1.0000   1.0000   1.0000   1.0000
     1.0000   1.0000   1.0000   1.0000   1.0000   1.0000

          k = 0.0000 0.0962 0.0000 (  5959 PWs)   bands (ev):

   -73.8735 -73.8735 -48.6038 -48.6036 -48.5795 -48.5791 -48.5379 -48.5376
   -48.4732 -48.4730 -47.7777 -47.7775 -47.7518 -47.7517 -47.7178 -47.7169
   -47.6755 -47.6745 -47.6279 -47.6273 -47.5696 -47.5694 -45.2664 -45.2664
   -35.5092 -35.5092 -35.3994 -35.3994 -15.1392 -15.1392 -13.8906 -13.8905
    -6.1171  -6.1171  -2.8834  -2.8834  -2.5543  -2.5542  -2.3189  -2.3187
    -1.6046  -1.6045  -1.2014  -1.2013  -0.2023  -0.2022

     occupation numbers 
     1.0000   1.0000   1.0000   1.0000   1.0000   1.0000   1.0000   1.0000
     1.0000   1.0000   1.0000   1.0000   1.0000   1.0000   1.0000   1.0000
     1.0000   1.0000   1.0000   1.0000   1.0000   1.0000   1.0000   1.0000
     1.0000   1.0000   1.0000   1.0000   1.0000   1.0000   1.0000   1.0000
     1.0000   1.0000   1.0000   1.0000   1.0000   1.0000   1.0000   1.0000
     1.0000   1.0000   1.0000   1.0000   1.0000   1.0000

          k = 0.0000 0.1925 0.0000 (  5945 PWs)   bands (ev):

   -73.8710 -73.8710 -48.5984 -48.5983 -48.5318 -48.5314 -48.4957 -48.4953
   -48.4354 -48.4353 -47.7892 -47.7891 -47.7040 -47.7036 -47.6634 -47.6629
   -47.6237 -47.6235 -47.5497 -47.5495 -47.4809 -47.4808 -45.2733 -45.2733
   -35.5158 -35.5158 -35.4304 -35.4304 -14.8516 -14.8515 -13.7595 -13.7594
    -5.7498  -5.7497  -3.6102  -3.6102  -3.0303  -3.0303  -2.1869  -2.1869
    -1.9467  -1.9466  -1.3387  -1.3386  -0.4421  -0.4420

     occupation numbers 
     1.0000   1.0000   1.0000   1.0000   1.0000   1.0000   1.0000   1.0000
     1.0000   1.0000   1.0000   1.0000   1.0000   1.0000   1.0000   1.0000
     1.0000   1.0000   1.0000   1.0000   1.0000   1.0000   1.0000   1.0000
     1.0000   1.0000   1.0000   1.0000   1.0000   1.0000   1.0000   1.0000
     1.0000   1.0000   1.0000   1.0000   1.0000   1.0000   1.0000   1.0000
     1.0000   1.0000   1.0000   1.0000   1.0000   1.0000

          k = 0.0000 0.2887 0.0000 (  5955 PWs)   bands (ev):

   -73.8696 -73.8696 -48.6692 -48.6690 -48.6223 -48.6219 -48.5598 -48.5594
   -48.5041 -48.5038 -47.8729 -47.8727 -47.7926 -47.7916 -47.7299 -47.7294
   -47.6848 -47.6838 -47.6293 -47.6285 -47.4611 -47.4610 -45.2844 -45.2844
   -35.5399 -35.5399 -35.4613 -35.4613 -14.4231 -14.4230 -13.5659 -13.5658
    -5.3139  -5.3139  -4.4182  -4.4181  -3.7185  -3.7184  -2.4274  -2.4273
    -1.9038  -1.9037  -1.5671  -1.5671  -0.8634  -0.8633

     occupation numbers 
     1.0000   1.0000   1.0000   1.0000   1.0000   1.0000   1.0000   1.0000
     1.0000   1.0000   1.0000   1.0000   1.0000   1.0000   1.0000   1.0000
     1.0000   1.0000   1.0000   1.0000   1.0000   1.0000   1.0000   1.0000
     1.0000   1.0000   1.0000   1.0000   1.0000   1.0000   1.0000   1.0000
     1.0000   1.0000   1.0000   1.0000   1.0000   1.0000   1.0000   1.0000
     1.0000   1.0000   1.0000   1.0000   1.0000   1.0000

          k = 0.0000 0.3849 0.0000 (  5941 PWs)   bands (ev):

   -73.8669 -73.8669 -48.7309 -48.7308 -48.6150 -48.6147 -48.5274 -48.5272
   -48.3471 -48.3469 -47.9033 -47.9031 -47.8295 -47.8292 -47.6945 -47.6939
   -47.6648 -47.6646 -47.5671 -47.5669 -47.4285 -47.4284 -45.2929 -45.2929
   -35.5796 -35.5796 -35.4713 -35.4713 -13.9382 -13.9381 -13.3517 -13.3516
    -5.5878  -5.5878  -4.5245  -4.5240  -4.4077  -4.4071  -2.8171  -2.8170
    -2.0155  -2.0154  -1.4361  -1.4361  -1.0982  -1.0981

     occupation numbers 
     1.0000   1.0000   1.0000   1.0000   1.0000   1.0000   1.0000   1.0000
     1.0000   1.0000   1.0000   1.0000   1.0000   1.0000   1.0000   1.0000
     1.0000   1.0000   1.0000   1.0000   1.0000   1.0000   1.0000   1.0000
     1.0000   1.0000   1.0000   1.0000   1.0000   1.0000   1.0000   1.0000
     1.0000   1.0000   1.0000   1.0000   1.0000   1.0000   1.0000   1.0000
     1.0000   1.0000   1.0000   1.0000   1.0000   1.0000

          k = 0.0000 0.4811 0.0000 (  5961 PWs)   bands (ev):

   -73.8665 -73.8665 -48.8040 -48.8040 -48.6615 -48.6613 -48.6116 -48.6113
   -48.4885 -48.4883 -47.9579 -47.9579 -47.9040 -47.9040 -47.7692 -47.7683
   -47.7540 -47.7529 -47.7119 -47.7117 -47.5507 -47.5507 -45.3010 -45.3010
   -35.6153 -35.6153 -35.4755 -35.4755 -13.5306 -13.5305 -13.1790 -13.1788
    -6.1795  -6.1795  -4.9572  -4.9572  -4.3112  -4.3111  -3.0711  -3.0711
    -2.1459  -2.1459  -1.2710  -1.2710  -0.9615  -0.9615

     occupation numbers 
     1.0000   1.0000   1.0000   1.0000   1.0000   1.0000   1.0000   1.0000
     1.0000   1.0000   1.0000   1.0000   1.0000   1.0000   1.0000   1.0000
     1.0000   1.0000   1.0000   1.0000   1.0000   1.0000   1.0000   1.0000
     1.0000   1.0000   1.0000   1.0000   1.0000   1.0000   1.0000   1.0000
     1.0000   1.0000   1.0000   1.0000   1.0000   1.0000   1.0000   1.0000
     1.0000   1.0000   1.0000   1.0000   1.0000   1.0000

          k = 0.0000-0.5774 0.0000 (  5948 PWs)   bands (ev):

   -73.8652 -73.8652 -48.6834 -48.6834 -48.6541 -48.6541 -48.5749 -48.5749
   -48.5085 -48.5085 -47.8541 -47.8541 -47.8240 -47.8240 -47.7615 -47.7615
   -47.7547 -47.7547 -47.7017 -47.7017 -47.4785 -47.4785 -45.3029 -45.3029
   -35.6283 -35.6283 -35.4743 -35.4743 -13.3654 -13.3654 -13.1119 -13.1119
    -6.4187  -6.4187  -5.1538  -5.1538  -4.2727  -4.2727  -3.1570  -3.1570
    -2.1863  -2.1863  -1.1698  -1.1698  -0.8441  -0.8441

     occupation numbers 
     1.0000   1.0000   1.0000   1.0000   1.0000   1.0000   1.0000   1.0000
     1.0000   1.0000   1.0000   1.0000   1.0000   1.0000   1.0000   1.0000
     1.0000   1.0000   1.0000   1.0000   1.0000   1.0000   1.0000   1.0000
     1.0000   1.0000   1.0000   1.0000   1.0000   1.0000   1.0000   1.0000
     1.0000   1.0000   1.0000   1.0000   1.0000   1.0000   1.0000   1.0000
     1.0000   1.0000   1.0000   1.0000   1.0000   1.0000

          k = 0.0833 0.1443 0.0000 (  5935 PWs)   bands (ev):

   -73.8709 -73.8709 -48.5526 -48.5524 -48.5149 -48.5133 -48.4644 -48.4636
   -48.3833 -48.3828 -47.7287 -47.7260 -47.6822 -47.6790 -47.6649 -47.6639
   -47.5646 -47.5639 -47.4740 -47.4732 -47.4360 -47.4356 -45.2709 -45.2694
   -35.5121 -35.5111 -35.4221 -35.4192 -14.9475 -14.9421 -13.8022 -13.8015
    -5.8663  -5.8622  -3.3996  -3.3625  -2.8485  -2.8194  -2.3214  -2.2009
    -2.0169  -1.9162  -1.2686  -1.0830  -0.3523  -0.3428

     occupation numbers 
     1.0000   1.0000   1.0000   1.0000   1.0000   1.0000   1.0000   1.0000
     1.0000   1.0000   1.0000   1.0000   1.0000   1.0000   1.0000   1.0000
     1.0000   1.0000   1.0000   1.0000   1.0000   1.0000   1.0000   1.0000
     1.0000   1.0000   1.0000   1.0000   1.0000   1.0000   1.0000   1.0000
     1.0000   1.0000   1.0000   1.0000   1.0000   1.0000   1.0000   1.0000
     1.0000   1.0000   1.0000   1.0000   1.0000   1.0000

          k = 0.0833 0.2406 0.0000 (  5943 PWs)   bands (ev):

   -73.8696 -73.8696 -48.5897 -48.5887 -48.5537 -48.5524 -48.5111 -48.5104
   -48.4088 -48.4083 -47.7843 -47.7784 -47.7081 -47.7031 -47.6727 -47.6712
   -47.6273 -47.6248 -47.5751 -47.5709 -47.5223 -47.5204 -45.2810 -45.2775
   -35.5261 -35.5253 -35.4569 -35.4510 -14.5938 -14.5779 -13.6396 -13.6376
    -5.4374  -5.4216  -4.1458  -4.1214  -3.3764  -3.3542  -2.5858  -2.5634
    -2.1350  -1.9326  -1.3809  -1.1776  -0.7168  -0.6241

     occupation numbers 
     1.0000   1.0000   1.0000   1.0000   1.0000   1.0000   1.0000   1.0000
     1.0000   1.0000   1.0000   1.0000   1.0000   1.0000   1.0000   1.0000
     1.0000   1.0000   1.0000   1.0000   1.0000   1.0000   1.0000   1.0000
     1.0000   1.0000   1.0000   1.0000   1.0000   1.0000   1.0000   1.0000
     1.0000   1.0000   1.0000   1.0000   1.0000   1.0000   1.0000   1.0000
     1.0000   1.0000   1.0000   1.0000   1.0000   1.0000

          k = 0.0833 0.3368 0.0000 (  5949 PWs)   bands (ev):

   -73.8681 -73.8681 -48.6737 -48.6716 -48.6098 -48.6076 -48.5499 -48.5459
   -48.4801 -48.4771 -47.8220 -47.8140 -47.7998 -47.7973 -47.7501 -47.7473
   -47.6705 -47.6686 -47.6253 -47.6242 -47.5308 -47.5246 -45.2922 -45.2878
   -35.5621 -35.5584 -35.4753 -35.4713 -14.1408 -14.1104 -13.4339 -13.4303
    -5.2653  -5.2350  -4.6132  -4.6038  -4.0963  -4.0517  -2.9837  -2.9581
    -2.0802  -1.8030  -1.6367  -1.4888  -1.0370  -0.7964

     occupation numbers 
     1.0000   1.0000   1.0000   1.0000   1.0000   1.0000   1.0000   1.0000
     1.0000   1.0000   1.0000   1.0000   1.0000   1.0000   1.0000   1.0000
     1.0000   1.0000   1.0000   1.0000   1.0000   1.0000   1.0000   1.0000
     1.0000   1.0000   1.0000   1.0000   1.0000   1.0000   1.0000   1.0000
     1.0000   1.0000   1.0000   1.0000   1.0000   1.0000   1.0000   1.0000
     1.0000   1.0000   1.0000   1.0000   1.0000   1.0000

          k = 0.0833 0.4330 0.0000 (  5953 PWs)   bands (ev):

   -73.8666 -73.8666 -48.7314 -48.7293 -48.6449 -48.6415 -48.5812 -48.5782
   -48.5080 -48.5061 -47.9132 -47.9099 -47.8125 -47.8062 -47.7719 -47.7681
   -47.7093 -47.7075 -47.6607 -47.6580 -47.5764 -47.5724 -45.3009 -45.2954
   -35.6029 -35.5944 -35.4805 -35.4787 -13.6941 -13.6475 -13.2363 -13.2314
    -5.8456  -5.8302  -4.7626  -4.7249  -4.3574  -4.3411  -3.1787  -3.1408
    -2.1457  -2.0101  -1.7648  -1.7173  -0.9900  -0.6836

     occupation numbers 
     1.0000   1.0000   1.0000   1.0000   1.0000   1.0000   1.0000   1.0000
     1.0000   1.0000   1.0000   1.0000   1.0000   1.0000   1.0000   1.0000
     1.0000   1.0000   1.0000   1.0000   1.0000   1.0000   1.0000   1.0000
     1.0000   1.0000   1.0000   1.0000   1.0000   1.0000   1.0000   1.0000
     1.0000   1.0000   1.0000   1.0000   1.0000   1.0000   1.0000   1.0000
     1.0000   1.0000   1.0000   1.0000   1.0000   1.0000

          k = 0.0833-0.6255 0.0000 (  5960 PWs)   bands (ev):

   -73.8661 -73.8661 -48.7591 -48.7575 -48.6905 -48.6877 -48.6234 -48.6199
   -48.5674 -48.5663 -47.9407 -47.9367 -47.8649 -47.8628 -47.8119 -47.8084
   -47.7701 -47.7640 -47.7155 -47.7147 -47.5932 -47.5903 -45.3063 -45.3002
   -35.6279 -35.6170 -35.4824 -35.4817 -13.4027 -13.3446 -13.1123 -13.1073
    -6.2790  -6.2372  -5.1466  -5.1142  -4.2625  -4.2302  -3.2520  -3.2107
    -2.2124  -2.1746  -1.8157  -1.6399  -0.8300  -0.4846

     occupation numbers 
     1.0000   1.0000   1.0000   1.0000   1.0000   1.0000   1.0000   1.0000
     1.0000   1.0000   1.0000   1.0000   1.0000   1.0000   1.0000   1.0000
     1.0000   1.0000   1.0000   1.0000   1.0000   1.0000   1.0000   1.0000
     1.0000   1.0000   1.0000   1.0000   1.0000   1.0000   1.0000   1.0000
     1.0000   1.0000   1.0000   1.0000   1.0000   1.0000   1.0000   1.0000
     1.0000   1.0000   1.0000   1.0000   1.0000   1.0000

          k = 0.1667 0.2887 0.0000 (  5954 PWs)   bands (ev):

   -73.8685 -73.8685 -48.6445 -48.6424 -48.6171 -48.6156 -48.5529 -48.5510
   -48.4971 -48.4949 -47.8159 -47.8103 -47.8002 -47.7847 -47.7328 -47.7320
   -47.7152 -47.7121 -47.6394 -47.6321 -47.6208 -47.6148 -45.2917 -45.2846
   -35.5527 -35.5483 -35.4795 -35.4729 -14.2129 -14.1721 -13.4629 -13.4580
    -5.1100  -5.0332  -4.6635  -4.6247  -3.8703  -3.7557  -3.2956  -3.1975
    -2.3048  -1.9816  -1.4646  -1.2418  -0.9357  -0.6885

     occupation numbers 
     1.0000   1.0000   1.0000   1.0000   1.0000   1.0000   1.0000   1.0000
     1.0000   1.0000   1.0000   1.0000   1.0000   1.0000   1.0000   1.0000
     1.0000   1.0000   1.0000   1.0000   1.0000   1.0000   1.0000   1.0000
     1.0000   1.0000   1.0000   1.0000   1.0000   1.0000   1.0000   1.0000
     1.0000   1.0000   1.0000   1.0000   1.0000   1.0000   1.0000   1.0000
     1.0000   1.0000   1.0000   1.0000   1.0000   1.0000

          k = 0.1667 0.3849 0.0000 (  5940 PWs)   bands (ev):

   -73.8663 -73.8662 -48.6696 -48.6658 -48.6510 -48.6482 -48.4945 -48.4885
   -48.4645 -48.4632 -47.8422 -47.8362 -47.8061 -47.8046 -47.7140 -47.7095
   -47.6930 -47.6892 -47.5655 -47.5620 -47.5238 -47.5186 -45.3009 -45.2911
   -35.5891 -35.5750 -35.4893 -35.4869 -13.7886 -13.7169 -13.2676 -13.2598
    -5.4435  -5.4352  -4.5760  -4.4855  -4.3892  -4.3882  -3.4762  -3.3760
    -2.6570  -2.3780  -1.7303  -1.5872  -0.9162  -0.5978

     occupation numbers 
     1.0000   1.0000   1.0000   1.0000   1.0000   1.0000   1.0000   1.0000
     1.0000   1.0000   1.0000   1.0000   1.0000   1.0000   1.0000   1.0000
     1.0000   1.0000   1.0000   1.0000   1.0000   1.0000   1.0000   1.0000
     1.0000   1.0000   1.0000   1.0000   1.0000   1.0000   1.0000   1.0000
     1.0000   1.0000   1.0000   1.0000   1.0000   1.0000   1.0000   1.0000
     1.0000   1.0000   1.0000   1.0000   1.0000   1.0000

          k = 0.1667-0.6736 0.0000 (  5944 PWs)   bands (ev):

   -73.8653 -73.8653 -48.6876 -48.6858 -48.6469 -48.6451 -48.5402 -48.5361
   -48.5040 -48.5030 -47.8483 -47.8466 -47.8163 -47.8150 -47.7691 -47.7658
   -47.7116 -47.7102 -47.6359 -47.6343 -47.6068 -47.6027 -45.3080 -45.2966
   -35.6183 -35.5969 -35.4962 -35.4952 -13.4396 -13.3399 -13.1102 -13.1012
    -5.8900  -5.8292  -5.1100  -5.0410  -4.2033  -4.1611  -3.4488  -3.3662
    -2.8523  -2.6418  -2.0302  -1.9607  -0.7454  -0.3917

     occupation numbers 
     1.0000   1.0000   1.0000   1.0000   1.0000   1.0000   1.0000   1.0000
     1.0000   1.0000   1.0000   1.0000   1.0000   1.0000   1.0000   1.0000
     1.0000   1.0000   1.0000   1.0000   1.0000   1.0000   1.0000   1.0000
     1.0000   1.0000   1.0000   1.0000   1.0000   1.0000   1.0000   1.0000
     1.0000   1.0000   1.0000   1.0000   1.0000   1.0000   1.0000   1.0000
     1.0000   1.0000   1.0000   1.0000   1.0000   1.0000

          k = 0.1667-0.5774 0.0000 (  5946 PWs)   bands (ev):

   -73.8650 -73.8650 -48.6948 -48.6940 -48.6670 -48.6658 -48.5694 -48.5690
   -48.5256 -48.5245 -47.8750 -47.8711 -47.8448 -47.8428 -47.7657 -47.7613
   -47.7527 -47.7424 -47.6404 -47.6298 -47.6001 -47.5944 -45.3101 -45.2973
   -35.6301 -35.6057 -35.4977 -35.4955 -13.3007 -13.1895 -13.0490 -13.0405
    -6.0682  -5.9781  -5.3061  -5.2450  -4.1931  -4.1365  -3.4055  -3.3290
    -2.8702  -2.6978  -2.1618  -2.1304  -0.6075  -0.2311

     occupation numbers 
     1.0000   1.0000   1.0000   1.0000   1.0000   1.0000   1.0000   1.0000
     1.0000   1.0000   1.0000   1.0000   1.0000   1.0000   1.0000   1.0000
     1.0000   1.0000   1.0000   1.0000   1.0000   1.0000   1.0000   1.0000
     1.0000   1.0000   1.0000   1.0000   1.0000   1.0000   1.0000   1.0000
     1.0000   1.0000   1.0000   1.0000   1.0000   1.0000   1.0000   1.0000
     1.0000   1.0000   1.0000   1.0000   1.0000   1.0000

          k = 0.2500-0.7217 0.0000 (  5922 PWs)   bands (ev):

   -73.8642 -73.8642 -48.6752 -48.6724 -48.5659 -48.5653 -48.5144 -48.5091
   -48.3668 -48.3659 -47.8276 -47.8214 -47.7758 -47.7676 -47.6882 -47.6845
   -47.6310 -47.6232 -47.5074 -47.5042 -47.4613 -47.4575 -45.3075 -45.2940
   -35.6118 -35.5850 -35.5041 -35.5008 -13.4550 -13.3404 -13.1089 -13.0983
    -5.6135  -5.5612  -5.0902  -4.9986  -4.1404  -4.1197  -3.5623  -3.5088
    -3.2533  -3.1342  -1.9791  -1.9125  -0.7337  -0.3804

     occupation numbers 
     1.0000   1.0000   1.0000   1.0000   1.0000   1.0000   1.0000   1.0000
     1.0000   1.0000   1.0000   1.0000   1.0000   1.0000   1.0000   1.0000
     1.0000   1.0000   1.0000   1.0000   1.0000   1.0000   1.0000   1.0000
     1.0000   1.0000   1.0000   1.0000   1.0000   1.0000   1.0000   1.0000
     1.0000   1.0000   1.0000   1.0000   1.0000   1.0000   1.0000   1.0000
     1.0000   1.0000   1.0000   1.0000   1.0000   1.0000

          k = 0.2500-0.6255 0.0000 (  5920 PWs)   bands (ev):

   -73.8636 -73.8636 -48.6612 -48.6581 -48.5842 -48.5815 -48.4928 -48.4912
   -48.4015 -48.3990 -47.8549 -47.8501 -47.7263 -47.7243 -47.6794 -47.6758
   -47.6452 -47.6407 -47.5816 -47.5745 -47.5029 -47.5006 -45.3128 -45.2962
   -35.6255 -35.5883 -35.5174 -35.5085 -13.2463 -13.1038 -13.0097 -12.9995
    -5.6623  -5.5443  -5.4085  -5.3263  -4.1538  -4.1317  -3.7076  -3.5857
    -3.4556  -3.2341  -2.2470  -2.2343  -0.4664  -0.0597

     occupation numbers 
     1.0000   1.0000   1.0000   1.0000   1.0000   1.0000   1.0000   1.0000
     1.0000   1.0000   1.0000   1.0000   1.0000   1.0000   1.0000   1.0000
     1.0000   1.0000   1.0000   1.0000   1.0000   1.0000   1.0000   1.0000
     1.0000   1.0000   1.0000   1.0000   1.0000   1.0000   1.0000   1.0000
     1.0000   1.0000   1.0000   1.0000   1.0000   1.0000   1.0000   1.0000
     1.0000   1.0000   1.0000   1.0000   1.0000   1.0000

          k = 0.3333-0.5774 0.0000 (  5904 PWs)   bands (ev):

   -73.8627 -73.8627 -48.5687 -48.5670 -48.4942 -48.4912 -48.4207 -48.4189
   -48.4127 -48.4091 -47.7278 -47.7266 -47.7040 -47.6971 -47.6164 -47.6116
   -47.5894 -47.5862 -47.5760 -47.5713 -47.5510 -47.5362 -45.3137 -45.2946
   -35.6272 -35.5796 -35.5294 -35.5130 -13.1737 -13.0153 -12.9708 -12.9612
    -5.5268  -5.4536  -5.3749  -5.1979  -4.5262  -4.3690  -3.8951  -3.8120
    -3.4212  -3.1552  -2.4285  -2.3512  -0.2784   0.1979

     occupation numbers 
     1.0000   1.0000   1.0000   1.0000   1.0000   1.0000   1.0000   1.0000
     1.0000   1.0000   1.0000   1.0000   1.0000   1.0000   1.0000   1.0000
     1.0000   1.0000   1.0000   1.0000   1.0000   1.0000   1.0000   1.0000
     1.0000   1.0000   1.0000   1.0000   1.0000   1.0000   1.0000   1.0000
     1.0000   1.0000   1.0000   1.0000   1.0000   1.0000   1.0000   1.0000
     1.0000   1.0000   1.0000   1.0000   1.0000   1.0000

     highest occupied level (ev):     0.1979

!    total energy              =    -628.12599896 Ry
     estimated scf accuracy    <       0.00000048 Ry

     The total energy is the sum of the following terms:
     one-electron contribution =   -3524.92913032 Ry
     hartree contribution      =    1753.85272264 Ry
     xc contribution           =    -127.35544711 Ry
     ewald contribution        =    1270.30585585 Ry

     convergence has been achieved in  11 iterations

     Writing all to output data dir ./WSe2.save/
 
     init_run     :      0.26s CPU      0.44s WALL (       1 calls)
     electrons    :      4.82s CPU      5.01s WALL (       1 calls)

     Called by init_run:
     wfcinit      :      0.13s CPU      0.18s WALL (       1 calls)
     wfcinit:atom :      0.00s CPU      0.00s WALL (       3 calls)
     wfcinit:wfcr :      0.12s CPU      0.16s WALL (       3 calls)
     potinit      :      0.03s CPU      0.04s WALL (       1 calls)
     hinit0       :      0.05s CPU      0.15s WALL (       1 calls)

     Called by electrons:
     c_bands      :      4.19s CPU      4.33s WALL (      11 calls)
     sum_band     :      0.48s CPU      0.49s WALL (      11 calls)
     v_of_rho     :      0.07s CPU      0.08s WALL (      12 calls)
     v_h          :      0.00s CPU      0.00s WALL (      12 calls)
     v_xc         :      0.06s CPU      0.07s WALL (      12 calls)
     mix_rho      :      0.05s CPU      0.06s WALL (      11 calls)

     Called by c_bands:
     init_us_2    :      0.07s CPU      0.07s WALL (      69 calls)
     init_us_2:cp :      0.07s CPU      0.07s WALL (      69 calls)
     cegterg      :      3.12s CPU      3.24s WALL (      33 calls)

     Called by sum_band:
     sum_band:wei :      0.00s CPU      0.00s WALL (      11 calls)
     sum_band:loo :      0.44s CPU      0.45s WALL (      11 calls)
     sum_band:buf :      0.02s CPU      0.02s WALL (      33 calls)
     sum_band:ini :      0.03s CPU      0.03s WALL (      33 calls)

     Called by *egterg:
     cdiaghg      :      0.43s CPU      0.50s WALL (     123 calls)
     cegterg:over :      0.20s CPU      0.20s WALL (      90 calls)
     cegterg:upda :      0.24s CPU      0.24s WALL (      90 calls)
     cegterg:last :      0.07s CPU      0.08s WALL (      33 calls)
     cdiaghg:chol :      0.03s CPU      0.03s WALL (     123 calls)
     cdiaghg:inve :      0.01s CPU      0.01s WALL (     123 calls)
     cdiaghg:para :      0.05s CPU      0.06s WALL (     246 calls)
     h_psi        :      2.18s CPU      2.26s WALL (     126 calls)
     g_psi        :      0.01s CPU      0.01s WALL (      90 calls)

     Called by h_psi:
     h_psi:calbec :      0.16s CPU      0.17s WALL (     126 calls)
     vloc_psi     :      1.75s CPU      1.81s WALL (     126 calls)
     add_vuspsi   :      0.25s CPU      0.25s WALL (     126 calls)

     General routines
     calbec       :      0.16s CPU      0.17s WALL (     126 calls)
     fft          :      0.03s CPU      0.12s WALL (     153 calls)
     ffts         :      0.01s CPU      0.01s WALL (      44 calls)
     fftw         :      1.77s CPU      1.83s WALL (   18912 calls)
 
     Parallel routines
 
     PWSCF        :      5.23s CPU      6.00s WALL

 
   This run was terminated on:  17:46:55   3Sep2022            

=------------------------------------------------------------------------------=
   JOB DONE.
=------------------------------------------------------------------------------=
TACC:  Shutdown complete. Exiting. 
